/*--------------------------------*- C++ -*----------------------------------*\
| =========                 |                                                 |
| \\      /  F ield         | OpenFOAM: The Open Source CFD Toolbox           |
|  \\    /   O peration     | Version:  2112                                  |
|   \\  /    A nd           | Website:  www.openfoam.com                      |
|    \\/     M anipulation  |                                                 |
\*---------------------------------------------------------------------------*/
FoamFile
{
    version     2.0;
    format      ascii;
    arch        "LSB;label=32;scalar=64";
    class       volScalarField;
    location    "0";
    object      p;
}
// * * * * * * * * * * * * * * * * * * * * * * * * * * * * * * * * * * * * * //

dimensions      [0 2 -2 0 0 0 0];

internalField   nonuniform List<scalar> 
160405
(
0.567261
0.188668
0.554645
0.031753
0.0346583
0.194051
0.0333771
0.0995216
0.206913
0.0348791
0.156583
0.00014963
0.0317034
0.0421255
0.611943
0.266247
0.63567
0.182131
0.34966
0.0422652
0.18091
0.0334073
0.281692
0.504875
0.203094
0.0335782
0.0336545
0.143212
0.0334396
0.334938
0.0073096
0.10416
0.183977
0.0335011
0.507226
0.0346576
0.384994
0.0335066
-0.0109459
0.033614
0.0394147
0.0446475
0.0318311
0.332819
0.0381306
0.0341885
0.526786
0.629415
0.0323636
0.0314625
0.404772
0.0360418
0.0346924
0.0318342
0.0968048
0.0315919
0.231263
0.201474
0.0692454
0.197126
0.0391492
0.0484134
0.119579
0.171406
0.0264961
0.461732
0.608154
0.0382069
0.0567783
0.550346
0.507479
0.0353977
0.0421936
0.504821
0.0131468
0.102535
0.0475376
0.0699071
0.595412
0.157445
0.554698
0.0421498
0.555216
0.538041
0.0394409
0.556573
0.0701317
0.205664
0.31721
0.229727
0.0390465
0.13146
0.0423151
-0.0133966
-0.00739492
-0.00996311
0.0193964
0.000725129
0.1504
0.0367489
0.0256573
0.454832
0.50637
0.171527
0.0366981
0.210528
0.487482
0.0367552
0.108861
0.0572925
0.0272207
0.0271525
0.0563489
0.0367336
0.252404
0.356736
0.0798682
0.0293182
0.0332271
0.0275213
0.0384334
0.0590014
0.522818
0.0264895
0.0265266
0.171873
0.301384
0.0264986
0.290867
0.603586
0.0419
0.0448317
0.323265
0.0420541
0.501015
0.110394
0.0367437
0.270927
0.036184
0.199941
0.387636
0.449755
0.0340753
0.0416407
0.0450112
0.0450649
0.0365735
0.251242
0.0363673
0.248225
0.0448526
0.0442858
0.0446601
0.0447136
0.0343432
0.0445739
0.0633196
0.0445441
0.0315106
0.263617
0.0447093
0.475345
0.0445549
0.0492689
0.13149
0.0463304
0.0471977
0.368163
0.4972
0.0507589
0.024444
0.0314762
0.554291
0.405363
0.21746
0.0285176
0.397624
0.487486
0.0275597
0.219619
0.0247432
0.303544
0.424307
0.0213537
0.196641
0.0237182
-0.010472
0.0347225
0.31128
0.020315
0.0419931
0.038315
0.56168
0.0419748
0.316864
0.230121
0.290457
0.492006
0.0295769
0.459485
0.343848
0.0405185
0.488333
0.554412
0.0293985
0.0333679
0.554134
0.484904
0.486738
0.157957
0.0300525
0.444231
0.38407
0.528075
0.0295652
0.569875
0.482902
0.550584
0.510012
0.539728
0.0401099
0.0211895
0.323032
0.0398724
0.555643
0.0424214
0.0266194
0.449488
0.0398993
0.0442216
0.0447275
0.4134
0.0498356
0.247886
0.0448911
0.474682
0.554529
0.0519295
0.0492746
0.0445946
0.0441441
0.2265
0.433531
0.414433
0.490929
0.250786
0.276915
0.540627
0.383039
0.0359893
0.0422712
0.0447563
0.169873
0.268684
0.0448927
0.138649
0.389751
0.0450986
0.0469353
0.0451641
-0.00287197
0.26135
0.22105
0.0448909
0.608554
0.409029
0.0447748
0.204166
0.55446
0.0384474
0.0429877
0.0430497
0.0431221
0.0327087
0.441558
0.0231059
0.0484097
0.0508283
0.0174967
0.0332161
-0.00690734
0.320603
0.317447
0.0321886
0.0779114
0.0186086
0.271499
0.0447174
0.0343404
0.555579
0.262575
0.050418
0.555697
0.25013
0.0479742
0.0477157
0.0646854
0.0321051
0.241462
0.0645763
0.321268
0.561138
0.060092
0.299943
0.0184079
0.106926
0.0183798
0.0181701
0.374859
0.0598772
0.254922
0.0181027
0.555216
-0.00986683
-0.0134589
0.0569221
0.064831
0.0621245
0.0514956
0.497731
0.0182353
0.0875251
0.0599795
0.551723
0.0184822
0.0181117
0.052431
0.140672
0.504921
0.537306
0.0282285
0.022951
0.434749
0.0215379
0.554194
0.271359
0.435778
0.0177898
0.516999
0.361927
-0.00958935
0.0247451
0.0485534
0.527265
0.55624
0.0524091
0.322542
0.554816
0.0544287
0.0521748
0.055149
0.0829229
-0.00231333
0.0215951
0.58086
0.33209
0.436278
0.215807
0.296496
0.0536329
0.0541468
0.266073
0.252377
0.0459367
0.120044
0.0550153
-0.00235991
0.504078
0.202101
0.388975
0.0593058
0.422402
0.256176
0.499367
0.0214999
0.0595757
0.564459
0.0289083
0.0243832
0.223042
0.0584729
0.319714
0.0366729
-0.0139763
0.233134
0.555726
0.0246253
0.408746
0.0464296
-0.00940585
-0.00122909
0.023534
0.0235838
0.0504463
0.0508225
0.0281873
-0.00931653
0.0182793
0.516963
0.509392
0.569424
0.115841
0.0507368
0.0507697
0.260495
0.0494362
0.127639
0.0541678
0.546578
0.209576
0.0216409
0.0360112
0.501553
0.546606
0.37749
0.0483246
0.363153
0.0944386
0.0543008
0.250141
0.0218511
0.0204126
0.612135
0.605109
0.554912
0.0238958
0.029036
0.021424
-0.00456386
0.0542837
0.0563578
0.0564255
0.0239241
0.34137
0.0216324
0.0365533
0.0097423
0.287855
0.00799879
0.524935
0.516693
0.0552327
0.51692
0.438652
0.506869
0.62905
0.516886
0.053422
0.0509071
0.0543384
0.00820409
0.0533997
0.053904
0.0541272
0.0999391
0.23955
0.020216
0.0130961
0.373441
0.26275
0.0117394
0.0574004
0.0984536
0.179474
0.532717
0.0177125
0.537601
-0.01325
0.0571255
0.557725
0.0540887
0.556047
0.33149
0.134269
0.0573151
0.057476
0.018186
0.478769
0.331389
0.0425772
0.0180997
0.0575603
0.0173351
0.323512
0.331252
0.322158
0.20917
0.082664
0.0575727
0.0118581
0.0683433
0.0147758
0.0143931
0.135593
0.0144014
0.0121517
0.0554018
0.067479
0.011986
0.0165714
0.00554302
0.600868
0.0699916
0.273621
0.123445
0.0048992
0.00857825
0.0112351
0.0701376
0.473656
0.555524
0.0784585
-0.00127905
0.384653
0.260502
0.0469188
0.0087301
0.0751723
0.0178267
0.0137674
0.498646
0.384692
0.0136331
0.231379
0.0573591
0.363964
0.334925
0.26846
0.424801
0.0573383
0.612004
0.234075
0.0116107
0.262847
-0.0131146
0.296388
0.0081001
0.00806356
0.00806911
0.0572781
0.166856
0.551488
0.0132821
0.245526
0.0930558
0.209769
0.444157
0.567652
0.281903
0.183677
0.00799626
0.092571
0.00807524
-0.0095892
0.0930596
0.0928916
0.389067
0.00505733
0.0793226
0.0925362
0.00505016
0.0978874
0.362542
0.465011
0.00529141
0.0646033
0.0130884
0.448641
0.536704
0.516859
0.101468
0.0641285
0.223327
0.0639803
0.0639449
0.0603992
0.474448
0.415554
0.552555
0.389952
0.0747707
0.209943
0.1334
0.317579
0.00526936
-0.0129226
-0.0120736
0.54739
0.511755
0.554314
0.537885
0.00798801
0.146491
0.509235
0.0687831
0.00878675
0.371099
-0.00994508
0.554742
0.0687976
0.0113708
0.064293
0.552121
0.0667495
0.331801
0.564565
0.131824
0.536609
0.564565
0.0667125
0.00333618
0.55461
0.0642236
0.0640023
0.555472
0.546947
0.371959
0.0651958
0.00469854
0.00469986
0.511136
0.0665272
0.551218
0.0670521
0.3635
0.555791
0.5554
0.00477401
0.0664556
0.0667657
0.0665963
0.402151
0.0670852
0.554836
0.0671135
0.541713
0.00497054
0.554864
0.0401335
0.438347
0.392816
0.0130334
0.351776
0.00417012
0.0672283
0.0675853
0.0800699
0.0213533
0.00409965
0.0677424
0.197609
0.0708503
-0.0141407
0.150912
0.0423228
-0.0133377
0.0617947
0.321592
0.164195
0.0284068
0.00404846
0.0700782
0.0633448
0.180712
0.329726
0.0475082
0.239226
0.485255
0.422526
0.00403607
0.45083
0.00696614
0.00236961
0.0486528
0.00498378
0.072647
0.378479
0.554845
0.0142894
0.0886679
0.0141007
0.0400429
0.0173547
0.0144497
0.0140896
0.112218
0.121176
0.131411
0.168235
0.103168
0.087496
0.122972
0.155951
0.499278
0.0891123
0.0142016
0.0145763
0.000587115
0.14317
0.455263
0.127713
0.168001
0.00461198
0.095295
0.103874
0.0182238
0.0989126
0.441126
0.227884
0.0953253
0.0937651
0.160788
0.0668579
0.00225571
0.00469017
0.128747
0.226649
0.00880814
0.18875
0.512764
0.0692897
0.218974
0.148966
0.292388
0.0111007
0.0672932
0.19403
0.00859369
0.0671852
0.0672688
0.155319
0.14146
0.249741
0.0774696
0.576912
0.0793354
0.220047
0.627522
0.0770841
0.412223
0.421044
0.478247
0.520771
0.257994
0.257981
0.316977
0.0084982
0.430761
0.257122
0.554397
0.441864
0.24985
0.0771606
0.354369
0.242531
0.0738789
0.427592
0.220979
0.0707343
0.381717
0.00582651
0.00875695
0.00935027
0.0708264
0.382588
0.00335949
0.293707
0.0786606
0.282998
0.00898955
0.0786454
0.0742791
0.226353
0.456055
0.296255
0.0744718
0.430702
0.26642
0.382229
0.120886
0.0742022
0.0739902
0.156014
0.365064
0.0123884
0.0706977
0.353383
0.236106
0.0023119
0.352774
0.372002
0.0737023
0.336682
0.00243796
0.0737766
0.397977
0.348569
0.251809
0.32295
0.444135
0.38331
0.46647
0.410101
0.00212275
0.362028
-0.0124531
0.0774019
0.37048
0.00222657
0.0875685
0.0744287
0.342382
0.0774273
0.474116
0.206767
0.383799
0.00213051
0.36799
0.415129
-0.00494327
0.5282
0.468642
0.0773584
0.40039
0.0772954
0.47411
-0.0028382
0.103303
0.446323
0.384441
0.536608
0.446043
0.480884
0.100106
0.467573
0.501933
0.381946
0.102916
0.516412
0.0172068
-0.00490628
-0.00282539
0.449091
0.10023
0.423278
0.463298
-0.00283854
0.492132
0.510281
0.101156
0.287238
0.0489345
0.0835907
-0.00278504
-0.00278112
-0.0027281
0.185113
0.436503
-0.00503964
0.521885
0.084092
-0.00341717
0.540299
0.553989
-0.00495574
0.0841359
0.554545
0.521064
0.221233
-0.00493456
-0.0115786
0.00726359
0.083721
0.556075
-0.00497487
0.0483854
0.0218339
0.0130887
0.0363304
0.0721438
0.320032
0.251226
0.0051233
0.0829084
0.151062
0.0999479
0.603281
0.0825112
0.13175
0.0796365
0.206222
0.00787844
0.16168
0.0826166
0.0768825
0.00332278
0.00243297
0.458248
0.12931
0.293762
0.00528074
0.00171108
0.0829852
0.0794849
0.459419
0.19624
0.114416
0.0769347
-0.00301016
0.0770311
0.097095
0.194217
0.0802226
0.459558
0.240157
0.0772752
-0.0088687
0.16048
0.113913
-0.00581607
-0.00934017
0.0402832
-0.00918788
0.0999577
-0.00966165
0.079691
0.317453
0.192777
0.380555
0.110478
0.379051
0.110122
0.189257
0.260442
-0.00572736
0.181706
0.351644
0.0198412
0.297405
0.432685
0.271013
0.188889
0.2703
0.153784
0.11292
0.11061
0.0179206
0.211049
0.236626
0.0180832
0.281351
0.220227
0.226859
0.219938
0.337663
0.176289
0.343627
0.22902
0.0224238
0.0228192
0.0772858
0.019738
0.361816
0.0780289
0.324835
0.215091
0.0799177
0.0798736
0.0798708
0.0775636
0.00201978
-0.00116514
0.398808
0.392314
0.414961
0.0774905
0.435739
0.00450304
0.342319
0.555101
0.415591
0.0805455
0.00236847
0.0851673
0.0691222
0.0854078
0.554964
0.463017
-0.000852363
0.272572
-0.00606622
0.143039
0.0928878
0.343934
0.12936
0.504797
0.229592
0.122966
-0.00568104
0.524451
0.415683
0.0805599
0.08055
-0.00225918
0.495443
0.516597
0.080651
0.414462
0.0806614
0.343962
0.562471
0.0872516
0.0871942
0.0178761
0.259544
-0.00556511
-0.0131565
0.0241109
0.41809
0.0233044
0.00955849
0.442846
0.260981
0.175535
0.596303
0.16103
0.0841718
0.0833592
0.165477
0.404271
0.375
0.387742
0.00794135
0.0845822
0.230879
0.138191
0.0699181
0.334212
0.158235
0.00913446
0.15681
0.0196102
0.0902185
0.256237
0.204427
-0.00944769
0.158709
0.232392
0.519838
0.0958671
-0.0120262
0.0930685
0.0933449
0.0854245
0.212886
0.369449
-0.00890337
-0.00981181
0.0884169
0.0893935
0.278169
-0.012041
0.115258
0.273511
0.200838
-0.0120029
0.320627
0.0924502
0.0876193
0.395312
0.343519
0.438384
0.202077
0.383271
0.0918809
0.0870377
0.525028
0.387469
0.313588
0.320874
0.400862
-0.00936227
0.08788
0.0880162
0.0878039
0.463553
0.307806
0.0878569
0.0870727
0.454861
0.363907
-0.0123642
0.444875
0.262637
0.48223
0.635819
0.384175
0.0695662
0.0874991
-0.0124922
-0.00336481
0.0904359
0.00219597
0.0904615
0.514667
0.449738
0.554376
0.221426
-0.0102032
-0.0119664
0.533322
0.531566
-0.0103095
0.011656
0.270453
-0.0127171
0.501334
0.0220007
0.26286
0.399395
-0.0126873
0.0144954
-0.0137429
-0.0134407
-0.0127345
0.0333846
0.0195276
0.0366037
0.165116
0.0587562
0.0976379
-0.0125599
-0.0121911
0.0463678
0.0594408
0.0906044
0.00785944
0.239649
0.0936286
0.394794
0.149836
0.0595898
0.0938596
0.138515
0.261192
0.0958257
0.119178
0.0723049
0.0910371
0.0448523
0.0941052
0.123192
0.0942084
0.0460186
0.189519
0.107254
0.0398173
0.070231
0.1052
-0.0125036
0.334449
-0.0121742
0.040199
0.23007
-0.012331
0.52376
0.109835
0.474286
0.0494015
0.102393
0.0359981
0.218771
0.259499
0.0766869
0.210451
0.0952939
0.102013
0.520111
0.141295
0.0995615
0.149798
0.104483
0.00457433
-0.01306
0.0993257
0.0996134
-0.0119481
0.099289
0.148043
0.143258
0.103131
0.161211
0.189692
-0.0124357
-0.0125869
0.138636
0.114415
0.104134
-0.0124999
0.172213
0.347035
-0.0126247
0.0651555
-0.0131159
-0.0127301
-0.0122567
0.30328
0.202071
-0.00535511
0.103896
0.137636
-0.0141995
-0.0121384
0.425014
0.168487
-0.0123794
-0.0120578
0.235747
-0.011977
0.0974903
0.551241
0.55145
0.232219
0.551578
0.555767
0.550618
0.250102
0.579393
0.344386
0.282826
0.107084
0.247046
0.205958
0.104629
0.255566
0.104378
0.253046
0.55058
0.333722
0.35736
0.374396
0.104346
0.286397
0.288858
0.322591
0.286437
0.107366
0.551492
0.230952
0.251726
0.550961
0.367084
0.313825
0.287048
0.104143
0.262849
0.553987
0.232814
0.103921
0.387997
-0.00995393
0.0983623
0.553822
0.292971
0.0979649
0.358276
0.296874
0.388403
0.550523
0.0980984
0.232058
0.344233
0.474635
0.214349
0.388665
0.0941708
0.377789
0.180085
0.326563
0.464866
0.465311
0.0981327
0.334093
0.311456
0.322214
0.553937
0.392256
0.377676
0.382205
0.553815
0.098291
0.547838
0.471512
0.105824
0.547799
0.10014
0.377336
0.412934
0.392504
0.112458
0.395456
0.107707
0.445064
0.252465
0.496152
0.302337
0.414988
0.22818
0.110073
0.398475
0.0048556
0.478669
0.357069
0.545692
0.402507
0.431208
0.113282
0.109797
0.548453
0.144706
0.55102
0.43523
0.392758
0.349495
0.407216
0.112518
0.548433
0.309281
0.524961
0.10941
0.393615
0.0512153
0.485635
0.49502
0.112615
0.554063
0.525433
0.100782
0.103199
0.548514
0.100941
0.107323
0.530076
0.537507
0.548341
0.10434
0.280678
0.431089
0.548271
0.10704
0.475791
0.185534
0.106968
0.392302
0.550849
0.380422
0.104553
0.183942
0.104374
0.104442
0.558734
0.132959
0.54423
0.547106
0.484784
0.251794
0.128492
0.550045
0.00929836
0.565764
0.173245
-0.00554273
0.329853
0.132722
0.557786
-0.00884161
0.125828
0.178139
0.040203
0.555473
0.0295228
0.304202
0.014178
0.214454
0.0251082
0.109071
0.109127
0.087673
0.553861
0.0886473
0.0292008
0.10895
0.381886
0.555105
0.0300983
0.553717
0.109365
0.106091
0.112301
0.130552
0.325494
0.118607
0.374088
0.057054
0.0573003
0.554207
0.113816
0.120198
0.00123755
0.11388
0.554053
0.554119
0.107376
0.252039
0.554032
0.560639
0.560521
0.104357
0.104636
0.175403
0.135842
0.134899
0.374378
0.56085
0.209806
0.363008
0.199531
0.555534
0.195422
0.410823
0.515022
0.321145
0.135077
0.135754
0.108229
0.108096
0.199457
0.107967
0.107962
0.505516
0.378117
0.284876
0.399307
0.561478
0.110092
0.110208
0.26337
0.561405
0.195642
0.108166
0.255187
0.108145
0.378057
0.341549
0.23066
0.277321
0.176262
0.291108
0.333776
0.268397
0.108413
0.247753
0.306575
0.17371
0.341039
0.111057
0.292092
0.111217
0.317513
0.555059
0.342805
0.108211
0.616899
0.110679
0.0289544
0.113124
0.470528
0.507888
0.560353
0.114083
0.54657
0.107918
0.510741
0.337378
0.59188
0.547013
0.361336
0.293419
0.343226
0.327171
0.547368
0.114099
0.11385
0.108464
0.286486
0.362274
0.547474
0.39208
0.107878
0.409488
0.265008
0.546155
0.553802
0.546439
0.00334847
0.550454
0.11052
0.443398
0.484839
0.480317
0.110678
0.478572
0.463439
0.0400329
0.258957
0.0313846
0.110481
0.151595
0.550583
0.113191
0.110142
0.553982
0.0769881
0.501831
0.185417
0.13351
0.103471
0.217682
0.110394
0.554571
0.321101
0.280615
0.381903
0.570298
0.154606
0.117028
0.11802
0.117995
0.0852824
0.555472
0.554842
0.0955754
0.0958877
0.0742159
0.0470386
0.15643
0.132968
0.134361
0.041773
0.107081
0.571899
0.399354
0.12465
0.555553
0.0597559
0.126127
0.238365
0.422997
0.550923
0.159847
0.551083
-0.000936738
0.17182
0.144889
0.170518
0.161863
0.119711
0.115605
0.179526
0.504759
0.331595
0.382683
0.271995
0.3422
0.219997
0.551584
0.551311
0.36875
0.319424
0.553768
0.434524
0.113344
0.402557
0.141923
0.424395
0.316648
0.5518
0.551937
0.428551
0.551475
0.551444
0.453482
0.504625
0.368792
0.160504
0.449487
0.41426
0.567066
0.118072
0.545413
0.545066
0.466895
0.543342
0.542989
0.465447
0.390051
0.546456
0.120563
0.0970228
0.543329
0.538742
0.546327
0.38234
0.117833
0.117669
0.461754
0.117781
0.475263
0.549925
0.0545156
0.123155
0.0861047
0.546609
0.12952
0.0172856
0.117359
-0.00226828
-0.01265
0.275717
0.192298
0.306358
0.563319
0.0172549
0.173958
0.509919
0.394826
0.24174
0.504947
0.0584661
0.0492495
0.108109
0.54677
0.123021
0.0720845
0.552751
0.470065
0.079301
0.550235
0.0777439
0.393272
0.494932
0.0342961
0.179541
0.550326
0.550329
0.0910046
0.0898387
0.566341
0.560228
0.122996
-0.00915528
0.331804
0.354315
0.123986
0.562592
0.0568966
0.231279
0.133098
0.0705311
0.129078
0.504726
0.0599361
0.139366
0.552813
0.129107
0.104038
0.102803
0.142945
0.105956
0.555076
0.214048
0.12903
0.0593084
0.107684
0.129313
0.534789
0.555291
0.257748
0.139601
0.120457
0.552618
0.578584
0.120509
0.00222877
0.189951
0.123119
0.193896
0.55048
0.120527
0.414594
0.475284
0.209362
0.239615
0.367482
0.135208
0.212244
0.127965
0.405625
0.345355
0.385151
0.399014
0.467185
0.418318
0.360596
0.35104
0.550409
0.351032
0.0314833
0.260442
0.552616
0.127082
0.55279
0.201255
0.422769
0.205114
0.292934
0.234977
0.557744
0.422654
0.422643
0.3595
0.27847
0.381561
0.243222
0.550358
0.133221
0.128651
0.494919
0.252716
0.271956
0.562079
0.559962
0.140462
0.296077
0.567422
0.632442
0.140793
0.374853
0.283117
0.13968
0.126038
0.559237
0.357292
0.349571
0.559084
0.55995
0.344092
0.351346
0.55575
0.331548
0.289042
0.394224
0.558801
0.310634
-0.00564965
0.505276
0.362034
0.377445
0.329589
0.264885
0.379071
0.343771
0.250333
0.364499
0.372242
0.413989
0.250864
0.592347
0.42305
0.435185
0.333686
0.428219
0.252322
0.419404
0.352442
0.245658
0.373993
0.12343
0.46407
0.509606
0.424412
0.502268
0.554407
0.331673
0.475807
0.239846
0.437962
0.468576
0.456009
0.444139
0.125735
0.547339
0.507237
0.438549
0.126093
0.126112
0.239834
0.453909
0.126185
0.325967
0.634938
0.637598
0.558445
0.481473
0.245632
0.485232
0.44349
0.52423
0.357233
0.471587
0.421597
0.463578
0.497041
0.0172551
0.491559
0.464987
0.0195862
0.507227
0.552579
0.546824
0.547075
0.460226
0.554702
0.546765
0.557663
0.128783
0.475909
0.463623
0.555617
0.557589
0.555643
0.53292
0.339383
0.507776
0.126195
0.592703
0.042914
0.037173
0.128029
0.036376
0.225777
0.554428
0.127192
0.421105
0.127706
0.127676
0.589504
0.550485
0.55768
0.545966
0.554623
0.546492
0.557662
0.127874
0.520924
0.550811
0.545299
0.554391
0.46464
0.433809
0.0789338
0.261527
0.138975
-0.00579859
-0.00252693
0.127995
0.341115
0.120841
0.554215
0.12419
0.127644
0.0992123
0.555498
0.0366209
0.0691835
0.127693
0.555417
0.069613
0.0173698
0.0421795
0.0252464
0.555486
0.0774901
0.129586
0.0382324
0.502327
0.269993
0.135462
0.499346
0.5064
0.135835
0.139218
0.0475373
-0.0117866
0.554637
0.547769
0.150912
0.0782482
0.550189
0.555582
0.139739
0.112437
0.136305
0.13946
0.503071
0.144763
0.554357
0.136216
0.139606
0.112824
0.554728
0.554213
0.546438
0.521297
0.537529
0.13605
0.133123
0.143334
0.558326
0.55467
0.133043
0.297523
-0.0131763
0.133078
0.554513
0.133019
0.252138
0.133017
0.2295
0.130079
0.133047
0.0847789
0.15811
0.00431621
0.292431
0.133053
0.133347
0.0434692
0.0898639
0.555523
0.26704
0.525724
0.237689
0.28719
0.359307
0.293163
0.334033
0.133182
0.555367
0.133252
0.120566
0.409328
0.374478
0.455606
0.357076
0.133194
0.370118
0.135822
0.313636
0.534042
0.433695
0.523114
0.634601
0.394096
0.526474
0.329321
0.499335
0.13892
0.135995
0.351992
0.449901
0.278072
0.136383
0.287416
0.499379
0.4892
0.470387
0.474627
0.354052
0.287518
0.135762
0.332646
0.52619
0.544618
0.138466
0.332214
0.448121
0.226234
0.454517
0.132815
0.555713
0.546714
0.143139
0.139666
0.143065
0.143094
0.00962272
0.142907
0.138687
0.0285553
0.0993809
0.547664
0.550034
0.482819
0.449058
0.555002
0.432401
0.138674
0.547733
0.0195105
0.373741
0.343374
0.369851
0.148624
0.414253
0.384493
0.353677
0.348127
0.342744
0.373159
0.280688
0.550118
0.148503
0.344274
0.373444
0.255622
0.555131
0.211308
0.530456
0.148653
0.528321
0.0242945
0.106029
0.00396949
0.499065
0.532427
0.148282
0.00396604
0.0647066
0.148687
0.151038
0.189621
0.148607
0.148575
0.459704
0.138865
0.530617
0.190601
0.459599
0.309173
0.494339
0.0287942
0.138675
0.0934426
0.499114
0.179904
0.191561
0.156731
0.243063
0.180353
0.0938117
0.236576
0.250666
0.231943
0.497178
0.13881
0.249749
0.310492
0.251545
0.481987
0.575459
0.357111
0.538297
0.371759
0.499321
0.350313
0.52834
0.362075
0.456089
0.54935
0.552566
0.371748
0.555514
0.39885
0.303427
0.425334
0.505984
0.552921
0.494883
0.143529
0.550698
0.23192
0.511061
0.14338
0.546384
0.138886
0.135912
0.145738
0.510863
0.553239
0.139989
0.490974
0.323802
0.538195
0.384145
0.259783
0.27747
0.270627
0.140053
0.549709
0.292569
0.158673
0.372286
0.553017
0.390293
0.302133
0.0025164
-0.00293396
0.038129
0.139914
0.0931192
0.0334064
0.0231193
0.139954
0.57422
0.274027
0.0421724
0.475757
0.0504303
0.138784
0.138799
0.0381575
0.142884
0.554864
0.496839
0.0464497
0.142867
0.139882
0.547793
0.451567
0.552788
0.0476942
0.0649167
0.127743
0.501942
0.0198502
0.44523
0.0366114
0.0484427
0.139868
0.552701
0.0335523
0.0401529
0.0385943
0.156399
0.0517436
0.15313
0.108979
0.0777143
0.0525724
0.0595743
0.0428645
0.104608
0.615151
0.200581
0.246022
0.0890946
0.250373
0.0767544
0.0185259
0.170684
0.0744477
0.260386
0.0694019
0.131394
-0.00290585
0.225875
0.152298
0.508171
0.127695
0.270301
0.0799787
0.152385
0.333517
0.0687716
-0.0133247
0.327167
0.160572
0.148464
0.377317
0.158884
0.579709
0.159702
0.251306
0.301466
0.15996
0.611481
0.148697
0.15904
0.12808
0.325248
0.159897
0.120186
0.114488
0.625294
0.321981
0.207336
0.486607
0.141083
0.283663
0.179162
0.151535
0.539019
0.168357
0.364749
0.203957
-0.00182702
0.117941
0.190048
0.345509
0.264256
0.144656
0.31917
0.308106
0.00783363
0.143833
0.232438
0.378223
0.634312
0.634105
0.538521
0.598747
0.21539
0.220082
0.601196
0.21664
0.21221
0.285546
0.209186
0.230999
0.311052
0.250038
0.294074
0.149636
0.367947
0.149749
0.630804
0.277281
0.262806
0.333372
0.307986
0.501937
0.262743
0.14478
0.507705
0.349888
0.248303
0.0400334
0.623044
0.149389
0.263426
0.277295
0.282502
0.290742
0.359617
0.395313
0.288278
0.424138
0.149472
0.443198
0.422536
0.189394
0.320599
0.42058
0.326911
0.146416
0.407852
0.146559
0.42943
0.418084
0.381017
0.351997
0.445463
0.189628
0.157926
0.00809055
0.379527
0.494968
0.052093
0.55487
0.149816
0.435845
0.371585
0.158815
0.311054
0.422149
0.374662
0.158373
0.405881
0.426388
0.158643
0.408959
0.326273
0.158347
0.46358
0.506342
0.159179
0.134719
0.484742
0.425866
0.343002
0.13655
0.506507
0.189398
0.442745
0.158123
0.360136
0.150915
0.159442
0.548287
0.13244
0.511459
0.545154
0.432275
0.536654
0.425428
0.148373
0.148352
0.458677
0.476531
0.448614
0.370212
0.201831
0.568538
0.374328
0.449944
0.491915
0.173413
0.308922
0.576849
0.156093
0.0195747
0.629409
-0.0118094
0.554844
0.155893
0.0576428
0.534327
0.153761
0.159167
0.154037
0.554324
0.158253
0.554715
0.159929
0.576146
0.0637937
0.160179
0.552471
0.322576
0.149666
0.26013
0.0978214
0.51709
0.546453
0.631636
0.154038
0.459647
0.504671
0.209642
0.168062
0.12071
0.552667
0.140794
0.148866
0.151476
0.249462
0.0143659
0.0591211
0.0696279
0.279452
0.00185741
0.154562
0.155012
0.506968
0.127921
0.460933
0.155084
0.354569
0.35378
0.0720971
0.503558
0.0484687
0.0965168
0.079967
0.00991942
0.100236
0.151592
0.491675
0.148985
0.232149
0.24284
0.0890505
0.148821
-0.0138101
0.0364348
0.26277
0.152699
0.0088877
0.122612
0.558542
0.0801175
0.0544013
-0.00497429
0.0522762
0.00777189
0.0453766
0.312235
0.317758
0.156939
0.354562
-0.00112044
0.189451
0.459317
0.160352
0.000372172
0.543409
0.554318
0.45403
0.161191
0.302751
0.015972
0.581221
0.613074
0.202214
0.160386
0.317114
0.628608
0.419426
0.160501
0.474836
-0.00255861
0.295421
0.48679
-0.00722915
0.531479
-0.0134145
0.557836
0.0874359
0.335192
-0.00294119
0.471231
0.0093131
-0.0107029
0.149943
0.160826
0.131513
0.160945
0.16118
0.161411
0.212429
0.159899
0.0315188
0.335181
0.161104
0.120274
0.148338
0.163884
0.146286
0.161068
0.337625
0.185371
0.18562
0.412744
0.0585372
0.412938
0.341919
0.0264571
0.0246391
0.552226
0.525328
0.505112
0.119494
0.0243173
0.186454
0.181977
0.179258
0.24675
0.342296
0.186343
0.181639
-0.0129355
0.437737
0.186144
0.158769
0.306919
0.320802
0.158598
0.344798
0.422542
0.467554
0.171697
0.158883
0.229629
0.327742
0.454682
0.159508
0.083466
0.163735
0.0367602
0.082297
0.164357
0.16379
0.0987598
0.108867
0.189654
0.113184
0.0940478
0.221214
0.158975
0.158851
0.100609
0.0887901
0.0937907
0.158529
0.158304
-0.013244
0.0175118
0.111757
0.28543
0.124602
0.1107
0.165124
0.116672
0.114566
0.272851
0.164196
0.276906
0.158875
0.0649951
0.158686
0.0537645
0.0422884
0.158715
0.324119
0.306226
0.161231
-0.0101054
0.0575101
0.161164
0.0158998
0.390276
0.158691
0.354058
0.323514
0.421142
0.157769
0.481557
0.160736
0.0209625
0.459891
0.435793
0.493945
0.167737
0.471657
0.463496
0.524681
0.486723
0.229934
0.167801
0.134557
0.342767
0.0102549
0.0194678
0.382648
0.423611
0.405106
0.131869
0.161965
0.300675
0.278007
0.363812
0.181618
0.163927
0.177002
0.251747
0.366721
0.0778426
0.0359182
0.00714299
0.000178144
-0.012873
0.179967
0.0490442
0.0425032
0.180729
0.118445
0.178986
0.160505
0.506333
0.18069
-0.00345849
0.145921
0.399116
0.343899
0.438025
0.0287886
0.181842
0.206302
0.166524
0.166052
0.206561
0.205233
0.0504179
0.232548
0.0366031
0.0493741
0.0174488
0.0747358
0.059573
0.0633518
0.250833
0.0273619
0.353415
0.011726
0.0773487
0.169719
0.169914
0.0645615
0.0674375
0.223948
0.0688645
0.169636
0.169925
0.590212
0.0146345
0.00982912
0.167207
0.207292
0.170653
0.06924
0.170353
0.170273
0.0900936
0.212329
0.170331
0.048517
0.243448
0.171872
0.236716
0.172084
0.0402406
0.506477
0.0743312
0.158199
0.0674021
0.110452
0.288881
0.438396
0.127792
0.285626
0.145757
0.138186
0.45993
0.164506
0.555219
0.366744
0.0820126
0.0179706
0.363025
0.0486882
0.415664
0.168436
0.18935
0.164672
0.164619
-0.0123838
0.351444
0.167916
0.235425
0.168469
0.16832
0.168314
0.168376
0.185789
0.168393
0.260184
0.168411
0.166644
0.312563
0.341441
0.113895
0.423509
0.415643
0.425814
0.169493
0.22027
0.327036
0.476927
0.166483
-0.010077
0.337648
0.189975
0.263628
0.173636
0.485733
0.16977
0.167905
0.270781
0.168253
0.571324
0.0371359
0.579429
0.373252
0.313353
0.281642
0.256549
0.575444
0.112881
0.514836
0.588162
0.311109
0.196146
0.168112
0.251677
0.301098
0.260401
0.308966
0.16473
0.170201
0.523451
0.372727
0.170112
-0.00116376
0.048503
0.170172
0.301356
0.170306
0.171733
0.171849
0.415987
0.361835
0.474254
0.343187
0.357694
0.346392
0.17023
0.56152
0.494596
0.0245984
0.563709
0.566978
0.302409
0.352917
0.427372
0.332895
0.381581
0.331691
0.394599
0.382389
0.170561
0.399998
0.0303264
0.434029
0.173677
0.0898934
0.39252
0.384381
0.170642
0.420565
0.416256
0.371741
0.474309
0.081972
0.0468152
0.0778227
0.371552
0.190438
0.389942
0.534995
0.176985
0.157137
0.417937
0.432827
0.46024
0.00483649
0.186784
0.427806
0.189088
0.126508
0.404265
-0.0128803
0.421081
0.544658
0.189503
0.443309
0.421024
0.189387
0.165429
0.481721
0.501079
0.504979
0.534303
0.471327
0.465257
0.506041
0.489082
0.152489
0.474456
0.202431
0.150336
0.484412
0.204146
0.527425
0.0163633
0.0113307
-0.0101157
0.106009
0.173503
0.417589
0.55132
-0.0094769
0.516717
0.236192
0.195367
0.554375
0.265894
0.204201
0.036866
0.202522
0.181605
0.30835
0.176664
0.214417
0.0369982
0.18212
0.129612
0.322699
0.0995192
-0.0110132
-0.0124852
0.579394
0.0793963
0.46495
0.141338
0.0365618
0.173878
0.114774
0.495624
0.0842149
0.173918
0.127766
0.364471
0.12429
0.176589
0.371813
0.454208
0.441335
0.495651
0.357443
-0.0059175
0.458878
0.48416
0.564234
0.402693
0.205701
0.422919
0.206577
0.204322
0.0999397
0.206676
0.129527
0.0666833
0.39493
0.206569
0.135334
0.0749546
0.00965465
0.206612
0.636202
0.416111
0.206624
-0.0137224
0.199962
0.514621
0.392414
0.240452
0.176724
0.249886
0.210562
0.215904
0.572425
0.417488
0.475651
0.433063
0.180151
0.14483
0.423437
0.303537
0.369572
0.368155
0.179804
0.258016
0.17994
0.321215
0.177173
0.283211
0.227783
0.269
0.18054
0.322133
0.251847
0.264685
-0.00338209
0.439913
0.364695
0.17942
0.320481
0.172315
0.170447
0.190372
0.18205
0.226122
0.108303
0.402057
0.544579
0.0636661
0.539999
-0.0129261
0.129539
-0.0121742
0.180058
0.328959
0.184175
0.240426
0.352934
0.189724
0.179467
0.547042
0.310931
0.179993
0.179518
0.288855
0.564884
0.569098
0.252074
0.460482
0.17988
0.246097
0.35765
-0.0129649
0.363823
0.555112
-0.00311675
0.470436
0.118428
0.100291
0.109723
0.0882654
0.180157
0.180206
0.0797886
0.180239
0.17957
0.392621
0.344426
0.120217
0.356379
0.161743
0.00805762
0.375282
0.180591
0.0408776
0.11849
0.0448436
0.135304
0.155595
0.139979
0.24774
0.321038
0.127261
0.0195137
0.180131
0.364536
0.400891
0.180072
0.402495
0.180538
0.471095
-0.00120797
0.0133932
0.0742316
0.180172
0.0987552
0.181706
0.0989816
0.0794401
0.180158
0.179635
0.059851
0.456568
0.375421
0.37463
0.3746
0.180282
0.186851
0.186482
0.186448
0.273741
0.281195
0.28552
0.18694
0.186256
0.175736
0.292313
0.186743
0.186383
0.367186
0.499679
0.36537
0.340904
-0.0133906
-0.00902405
-0.0131567
0.205861
0.206842
0.316117
0.206817
0.49403
0.0131801
0.449802
0.626468
0.507259
0.424334
0.365254
0.373353
0.377705
0.497935
0.18373
0.484757
0.179485
0.200437
0.0234957
0.206575
0.201813
0.622063
0.206644
0.193615
0.345396
0.536407
0.45148
-0.00528857
0.193789
0.190519
0.291014
0.0471571
0.301895
0.190708
0.441501
0.190617
0.260557
0.377996
0.344466
0.162217
0.259685
0.222499
0.444233
0.217026
0.458579
0.149642
0.463315
0.313101
0.365058
0.226473
0.276941
0.456077
0.18685
0.23002
0.303151
0.216048
0.200471
0.239075
0.0485268
0.181848
0.0145744
0.109969
0.3008
0.0523185
0.0695761
0.343051
0.159471
0.190201
0.0382561
0.0338737
0.0474807
0.153645
0.190021
0.441635
0.610756
-0.0122297
0.175788
0.000751939
0.17125
0.0334188
0.0184334
0.236052
0.190073
0.0763765
0.0521049
0.0242898
0.260109
0.266379
0.187311
0.19625
0.56155
0.558149
0.19665
0.474333
0.255751
0.571713
0.0449046
0.196486
0.227087
0.19428