/*--------------------------------*- C++ -*----------------------------------*\
| =========                 |                                                 |
| \\      /  F ield         | OpenFOAM: The Open Source CFD Toolbox           |
|  \\    /   O peration     | Version:  2112                                  |
|   \\  /    A nd           | Website:  www.openfoam.com                      |
|    \\/     M anipulation  |                                                 |
\*---------------------------------------------------------------------------*/
FoamFile
{
    version     2.0;
    format      ascii;
    arch        "LSB;label=32;scalar=64";
    class       volScalarField;
    location    "0";
    object      T;
}
// * * * * * * * * * * * * * * * * * * * * * * * * * * * * * * * * * * * * * //

dimensions      [0 0 0 1 0 0 0];

internalField   nonuniform List<scalar> 
160405
(
898.095
905.039
965.179
970.625
972.18
951.329
978.366
967.459
954.634
972.392
955.278
961.198
970.721
970.191
895.143
902.472
894.734
975.41
934.396
970.232
905.418
978.584
957.339
939.896
968.778
978.294
978.287
957.535
978.386
900.885
985.895
974.833
905.253
978.382
937.287
972.305
960.848
978.354
970.956
978.338
925.92
966.492
971.525
945.623
938.789
971.634
922.468
894.522
944.587
970.493
960.485
977.729
971.161
968.991
912.888
969.511
953.83
904.407
969.568
929.002
928.687
977.693
967.308
905.963
980.531
932.439
895.245
938.521
986.297
897
936.842
946.955
970.084
940.484
982.414
962.869
913.481
978.518
895.662
906.893
968.176
970.586
962.143
936.748
926.372
896.673
981.538
904.237
966.882
968.403
917.848
969.844
970.304
970.751
939.799
997.072
980.436
990.172
907.342
977.757
933.332
939.772
900.471
908.769
977.669
959.22
898.221
977.54
966.942
986.325
981.352
981.401
986.163
977.561
961.004
916.051
978.764
980.035
978.323
981.316
938.468
969.973
897.605
981.036
981.069
974.04
901.349
980.931
970.632
895.334
941.819
942.364
900.037
947.343
897.997
974.503
977.808
961.297
977.517
966.406
958.158
950.566
977.917
943.956
943.864
945.042
977.232
952.138
977.407
926.141
946.167
966.219
967.982
971.207
966.467
965.931
917.996
965.608
946.409
962.987
968.394
932.521
967.47
974.009
969.766
979.237
974.877
964.798
947.283
984.939
950.981
946.673
952.043
899.476
900.468
943.765
937.717
898.504
928.757
960.971
951.361
971.28
899.18
973.992
954.563
979.003
938.267
968.471
975.763
979.964
968.61
976.448
904.237
968.065
918.215
969.518
969.961
898.148
980.009
898.667
900.503
978.25
898.208
972.206
979.968
978.298
954.8
945.967
953.817
970.408
979.594
898.9
945.952
941.596
979.634
896.567
898.294
911.279
897.842
897.088
978.151
974.109
899.463
978.23
958.256
969.714
981.083
948.188
978.335
966.052
966.985
898.909
970.697
943.881
963.604
948.203
970.594
960.249
925.916
948.173
947.09
960.57
899.055
942.455
898.167
921.344
961.607
902.109
907.348
925.463
941.357
966.851
966.702
967.696
968.168
967.842
903.539
968.94
975.818
968.876
938.054
952.183
958.258
968.016
895.634
960.778
967.756
951.169
971.513
976.574
977.139
977.127
977.222
932.087
929.779
977.997
986.785
985.123
980.867
932.317
937.858
974.697
968.706
948.254
920.625
937.655
915.287
947.449
948.744
959.013
963.413
985.526
959.279
969.157
994.779
994.692
909.715
945.043
953.357
910.023
975.441
896.713
914.154
975.475
978.929
911.806
978.942
978.856
899.976
914.055
929.411
979.197
962.127
988.239
1005.08
986.159
913.81
909.66
911.676
946.747
979.125
911.097
913.351
924.789
978.84
979.288
940.243
967.851
940.009
933.298
976.549
935.482
939.139
971.78
957.15
951.286
899.054
979.64
942.33
972.253
996.142
973.112
975.948
937.897
952.695
961.053
949.623
966.52
965.504
962.876
965.213
977.578
940.133
934.806
896.227
899.141
956.277
962.255
901.469
923.993
980.482
957.608
960.749
923.593
971.188
965.635
948.295
939.573
969.403
963.48
978.871
899.225
962.354
919.232
973.829
981.582
902.543
976.614
952.637
959.744
969.29
937.993
977.811
994.178
903.214
959.024
971.321
957.779
979.366
996.016
987.826
978.377
978.388
984.795
985.158
975.785
994.334
947.917
942.052
925.354
896.18
959.38
985.219
985.211
965.523
990.684
969.284
982.686
897.109
964.049
955.299
926.606
897.947
916.493
915.854
921.97
945.31
909.958
982.66
969.481
956.415
979.922
895.202
895.262
965.143
979.109
978.85
973.517
940.222
982.696
986.166
986.204
979.167
973.402
974.519
977.539
985.62
899.708
982.115
949.769
927.62
964.369
940.015
935.298
938.311
894.7
943.049
982.186
984.975
967.067
981.192
981.913
981.932
982.014
974.38
903.037
980.063
982.721
900.002
963.141
975.18
986.468
979.62
968.635
897.383
979.108
935.686
1005.01
986.245
910.289
982.3
953.078
974.272
969.651
986.439
986.466
978.72
921.816
974.298
970.117
978.83
986.461
981.194
963.345
974.283
909.877
964.998
939.533
986.408
975.807
909.305
976.26
974.792
908.601
961.607
974.637
940.087
917.828
960.672
945.61
949.88
895.424
920.039
963.629
904.304
979.796
980.641
975.834
913.816
898.431
960.349
929.364
936.65
957.892
965.412
976.548
980.689
944.563
979.416
982.094
898.012
958.746
982.238
953.518
986.458
900.07
899.254
967.279
942.481
986.527
895.354
928.066
975.41
964.537
1004.96
899.81
981.382
981.419
981.33
986.437
906.479
924.108
982.347
902.94
964.852
963.925
898.308
897.007
957
950.156
981.704
963.493
981.503
994.643
976.34
963.774
898.824
979.719
969.558
963.368
979.661
912.654
972.299
898.578
979.628
964.836
933.243
914.995
916.446
942.782
912.522
981.741
901.743
981.704
981.659
982.484
946.943
959.862
904.956
915.287
964.574
963.305
954.611
968.519
979.559
1004.9
960.743
929.606
898.395
969.651
937.244
981.261
907.649
923.924
969.62
959.561
900.136
972.301
967.547
969.854
973.886
981.594
896.858
985
974.309
902.492
970.409
919.134
902.459
985.019
964.568
969.39
981.821
981.7
960.931
918.443
900.036
963.9
977.206
978.818
933.564
985.061
896.79
985.007
944.32
955.142
954.108
979.895
985.038
985.081
985.082
967.705
985.22
966.616
985.058
934.421
979.915
966.191
978.385
908.263
969.346
982.707
973.028
987.703
985.05
985.026
910.736
973.852
987.692
910.303
905.08
910.06
994.304
969.477
929.078
1005.04
909.871
975.026
904.701
976.356
987.382
913.353
911.715
958.948
900.76
997.411
971.137
932.784
964.228
987.719
909.888
986.01
979.957
986.629
979.897
939.864
961.658
968.118
976.319
907.079
976.365
978.219
979.614
975.872
976.355
935.074
971.163
970.264
965.463
963.602
918.585
962.848
907.074
898.011
928.801
976.402
976.322
988.773
955.478
940.992
969
906.181
980.166
936.913
974.765
979.104
927.135
928.647
947.994
933.085
976.956
964.087
985.045
980.356
980.3
909.809
960.099
980.517
971.138
901.58
981.703
903.716
914.814
952.64
976.185
985.225
950.13
980.557
985.162
985.18
907.027
903.762
969.133
983.777
896.286
980.428
960.751
894.823
983.632
966.168
899.235
898.075
897.617
945.319
944.585
965.589
980.676
898.254
963.718
972.733
898.974
969.095
983.69
900.507
965.073
980.589
899.068
900.806
981.55
970.12
955.252
959.549
953.011
981.583
970.463
964.11
969.957
931.074
899.676
952.97
931.088
980.43
960.065
949.287
942.181
980.583
898.505
952.918
970.419
971.392
980.101
980.53
931.043
965.991
953.9
981.522
947.643
965.378
979.867
945.832
971.067
980.102
918.055
979.726
980.038
937.336
966.476
951.882
947.2
898.617
943.415
898.492
910.51
980.366
972.394
938.851
983.772
933.622
979.992
981.925
915.084
973.641
983.764
953.902
954.689
942.614
980.335
962.62
954.928
990.651
941.625
898.497
983.759
931.234
983.772
899.367
990.175
906.073
953.032
961.567
918.933
952.824
897.871
906.315
898.268
897.663
970.394
905.622
924.222
981.686
990.861
990.601
936.2
909.57
964.328
944.561
990.593
926.455
930.946
908.817
899.52
989.513
978.51
990.272
990.314
990.167
905.684
955.937
991.02
897.22
977.908
991.062
913.564
974.179
991.327
977.972
970.506
940.048
900.847
991.234
994.386
985.043
978.497
952.624
991.233
988.973
956.451
982.545
977.444
957.992
900.95
952.232
979.321
958.597
969.211
968.086
895.669
939.549
970.564
977.705
964.649
981.812
967.719
939.599
983.626
964.601
979.009
898.673
968.545
969.932
979.305
972.558
962.521
979.09
945.442
967.581
972.941
983.743
990.181
983.758
979.767
900.814
979.468
945.705
971.317
983.671
994.452
964.074
972.482
990.7
994.206
978.135
993.981
974.21
995.059
980.158
966.782
900.862
933.087
967.796
964.802
968.917
970.668
965.185
990.962
975.607
972.757
980.117
970.563
961.575
901.589
904.153
963.298
959.075
962.905
973.621
979.376
903.693
966.123
979.266
901.825
959.427
961.577
961.33
965.323
969.651
947.896
966.304
978.222
978.069
983.77
980.172
972.355
983.715
900.855
903.963
980.737
980.377
980.613
983.991
980.659
986.806
960.973
899.713
944.327
984.04
957.029
981.048
973.684
962.733
961.047
980.131
979.881
935.186
969.425
936.087
964.242
944.129
966.993
902.051
983.571
902.814
962.697
968.233
968.339
941.758
968.917
961.388
983.357
897.195
959.888
979.986
980.077
976.286
931.198
923.659
979.957
942.768
980.009
968.737
904.398
981.929
981.937
979.066
965.533
983.721
1004.98
925.235
912.085
978.637
952.395
957.944
965.112
905.712
895.531
967.147
979.482
978.783
965.971
898.958
964.808
938.773
947.625
909.382
951.542
968.519
981.442
966.958
970.357
952.667
955.991
938.573
909.962
962.951
948.689
995.429
970.592
902.154
917.915
905.865
1000.9
906.751
908.184
954.538
964.601
899.683
994.92
996.407
928.036
930.027
947.58
1000.98
910.065
963.153
959.494
1000.86
974.846
936.756
982.224
963.764
947.241
934.806
969.481
943.598
907.398
981.989
897.185
913.901
901.088
975
931.837
995.844
982.085
982.022
982.141
943.982
901.156
982.103
982.059
898.787
899.47
1003.05
940.417
963.137
926.666
895.012
898.931
930.382
982.092
1002.72
990.61
978.789
979.54
978.819
947.296
950.538
968.786
958.148
989.912
994.413
908.973
897.678
989.942
975.392
963.434
1001.68
898.03
929.252
962.417
962.918
1000.86
976.4
1005.17
1005.07
1002.57
978.204
980.227
977.537
966.141
969.422
979.8
1002.66
1002.65
978.468
980.264
978.234
981.202
971.328
977.205
898.325
963.182
982.955
977.025
968.516
951.103
959.447
967.264
959.269
978.676
969.798
977.383
962.845
977.556
978.665
968.002
907.308
977.673
981.107
909.289
1002.63
900.672
1002.51
978.089
969.391
1002.9
897.72
968.188
948.914
925.394
905.202
977.733
901.701
965.491
983.612
904.062
921.289
935.845
897.894
967.399
928.997
963.252
975.523
980.597
1001.6
929.046
929.332
994.614
929.375
970.954
954.092
963.603
968.129
967.427
1002.84
1002.63
968.638
972.701
974.411
1002.9
974.441
942.41
1002.67
939.968
1004.96
1002.6
1001.46
965.381
969.317
982.085
974.153
906.321
991.895
988.403
942.689
965.619
988.456
994.59
964.564
988.311
979.946
924.547
924.748
964.487
924.879
910.354
912.533
969.221
896.269
951.14
959.661
977.145
911.039
911.969
975.316
948.499
974.855
964.182
911.495
969.506
899.119
959.381
975.415
956.744
940.874
947.488
955.584
977.147
924.347
920.717
953.532
924.525
919.089
901.201
955.509
975.059
901.22
961.35
967.666
975.09
899.662
943.349
979.69
931.134
967.152
979.886
965.12
968.991
960.554
910.659
979.817
967.004
967.509
901.703
950.245
962.818
977.299
944.638
960.491
942.087
944.613
898
979.74
969.126
975.624
948.284
929.552
969.45
959.868
970.141
931.896
919.724
934.299
928.724
932.787
933.168
974.257
961.48
966.294
969.199
936.897
962.893
977.073
941.224
961.407
901.387
948.716
955.453
946.372
967.802
899.669
935.26
921.553
941.873
940.49
968.023
908.644
956.016
968.156
931.256
965.61
922.626
957.257
969.381
900.391
899.438
936.968
931.246
901.181
950.031
967.041
899.684
922.702
932.673
941.419
939.041
959.128
949.445
976.722
974.764
930.731
976.447
977.041
901.105
934.567
931.549
975.443
960.055
930.065
931.81
977.101
930.731
905.191
977.085
969.254
924.558
933.302
975.511
948.97
975.438
975.431
897.478
906.521
896.795
896.896
950.4
922.873
903.698
909.573
933.861
896.352
905.87
991.159
900.967
906.622
911.163
994.55
903.3
905.655
978.254
953.611
979.186
900.133
982.081
949.083
972.605
927.541
927.994
982.055
937.82
967.747
979.837
926.979
970.168
957.417
979.593
969.214
927.996
933.305
934.812
906.05
900.845
903.987
946.452
986.426
986.382
948.944
972.056
970.333
989.657
972.013
957.871
955.137
977.1
922.751
960.795
911.405
912.069
974.989
975.455
973.025
962.157
969.113
948.438
910.416
964.989
945.393
969.358
953.362
968.962
930.51
948.603
899.994
968.99
961.506
976.974
977.211
960.367
977.355
977.417
932.323
962.59
947.415
962.884
904.915
974.799
973.978
962.037
905.316
967.584
977.003
929.735
977.028
962.601
973.859
900.319
907.127
951.082
973.286
969.658
967.703
977.04
925.065
966.797
950.886
973.481
974.171
950.846
974.151
965.907
958.535
947.571
976.987
894.884
974.352
931.616
957.306
953.694
897.839
913.512
972.462
915.491
977.066
897.857
965.631
895.772
916.376
971.915
969.764
946.78
899.792
929.569
972.849
971.889
976.974
900.324
972.234
919.147
969.398
977.074
959.995
968.92
897.906
935.144
913.855
988.438
909.184
974.685
958.694
945.948
897.871
974.433
920.924
944.503
978.198
943.905
970.282
973.39
900.7
908.696
963.014
973.286
927.459
983.686
905.102
970.053
908.852
974.448
952.788
973.619
970.091
974.855
960.16
970.213
896.432
968.647
973.77
973.718
973.695
957.763
910.596
966.441
959.697
956.624
980.356
975.551
955.265
902.829
903.005
922.294
977.104
897.384
962.754
916.929
910.549
914.956
960.353
924.933
899.236
923.232
963.421
923.217
987.876
975.015
965.961
964.166
967.695
927.071
934.86
969.444
938.126
974.556
970.35
953.124
973.719
960.633
924.849
924.829
903.955
936.96
936.193
905.066
938.046
967.966
908.404
939.292
944.706
925.259
925.23
937.633
924.797
925.02
952.894
939.661
965.8
906.699
948.725
941.986
896.556
973.76
940.963
941.042
952.654
906.124
900.309
941.098
910.813
914.584
971.407
979.773
906.586
897.02
897.981
970.848
973.765
973.684
932.118
973.803
932.918
908.75
980.747
934.55
912.23
914.482
968.106
980.662
973.755
948.081
1001.55
945.303
972.52
945.049
896.606
980.68
928.81
897.53
964.215
953.564
937.143
970.043
989.177
907.027
914.408
935.591
957.147
905.321
900
967.757
908.451
983.704
969.258
941.111
972.304
969.274
909.507
909.388
915.74
977.732
896.225
900.118
961.129
978.969
900.725
900.312
969.035
898.88
986.373
952.976
958.176
981.208
968.232
938.182
982.863
966.163
905.205
968.166
973.823
905.177
958.231
959.147
909.362
951.744
968.3
969.751
977.179
968.623
945.335
909.97
912.738
923.592
971.152
905.068
896.363
971.081
980.774
962.159
962.97
949.842
909.948
971.645
942.186
931.617
964.794
971.321
938.814
968.781
965.188
969.507
961.707
900.464
962.566
898.754
952.977
937.849
898.658
972.675
909.598
972.702
928.254
965.584
905.02
969.285
905.235
970.046
964.271
904.45
953.682
948.753
910.336
964.197
964.229
913.423
951.395
970.09
967.009
925.761
903.333
903.207
898.903
962.322
952.923
897.069
901.225
903.646
965.173
896.544
895.153
903.541
962.107
959.361
903.253
960.382
896.992
942.64
934.551
897.082
902.172
963.299
972.851
896.418
974.398
942.435
943.846
897.462
975.267
982.617
932.77
972.295
938.972
937.772
968.752
903.85
965.383
969.412
965.518
971.567
898.503
969.069
896.013
964.335
941.387
963.605
935.468
965.642
958.3
973.016
963.129
945.757
955.598
898.648
897.847
941.477
926.126
968.318
974.653
902.367
971.318
933.871
908.258
949.469
957.967
934.283
928.278
937.415
930.85
960.296
959.322
971.361
953.169
961.078
899.163
894.596
894.934
930.954
928.872
961.206
933.798
958.184
948.536
900.262
927.526
930.889
944.434
947.624
932.228
899.835
941.696
980.214
937.515
905.047
915.216
917.27
944.929
970.34
916.136
910.497
967.982
930.77
944.551
910.902
910.324
910.83
908.651
935.267
936.757
959.262
897.087
977.71
926.177
968.678
977.366
903.42
971.969
969.357
930.329
969.104
969.19
896.008
910.645
910.472
914.042
969.519
916.083
910.547
968.809
897.349
924.855
941.945
955.519
898.608
961.685
968.914
951.229
967.588
990.566
965.703
969.488
898.55
971.081
957.999
969.713
969.297
966.656
953.148
977.526
967.628
969.302
953.984
977.215
981.083
969.728
972.511
953.221
984.13
925.638
976.835
926.002
958.181
960.536
921.602
897.91
933.152
965.987
973.794
994.53
969.009
928.66
970.272
915.328
909.614
952.272
965.91
935.458
960.337
965.764
897.951
907.92
955.508
960.392
966.163
910.856
967.956
954.45
913.771
941.58
938.425
960.294
957.758
907.841
900.979
964.666
958.045
970.142
938.099
957.858
966.828
958.889
954.251
958.588
969.332
967.718
958.028
907.034
970.518
956.244
950.899
958.177
958.622
977.357
974.962
952.851
952.357
897.529
943.871
954.535
900.231
965.23
967.6
958.671
954.524
958.855
971.772
960.944
946.531
940.912
941.195
958.564
933.349
960.502
970.041
897.026
961.758
910.716
894.794
944.566
922.137
899.146
922.176
967.715
960.296
973.391
950.284
948.593
960.769
958.438
921.149
919.377
900.105
898.258
960.561
958.612
930.052
899.342
920.596
897.011
913.573
900.702
934.357
959.406
938.886
933.039
909.633
914.912
955.371
924.205
952.671
937.645
985.763
954.055
968.025
929.52
967.751
934.445
909.614
898.18
935.348
963.936
961.552
967.93
933.757
980.209
945.993
900.499
933.24
972.813
942.155
964.285
948.369
969.538
945.683
944.175
960.199
909.988
972.2
963.705
908.257
946.959
964.528
958.127
916.785
972.035
897.31
924.655
960.734
987.02
921.973
908.212
971.361
987.421
965.462
972.462
970.958
967.031
972.49
971.56
945.578
967.61
902.946
958.875
945.644
898.99
945.008
976.585
968.117
976.095
922.049
960.288
972.977
954.925
966.679
921.756
908.443
967.41
911.706
963.484
947.236
967.669
969.233
975.343
952.901
905.262
895.517
941.144
896.892
971.237
921.063
935.79
897.112
972.364
948.003
896.597
896.837
900.029
896.427
958.72
901.384
956.936
931.748
896.529
931.404
936.166
896.773
963.439
932.953
935.109
915.854
966.069
958.402
930.407
932.873
896.525
965.939
898.169
967.971
897.018
946.317
965.546
961.294
905.842
965.847
899.396
952.133
970.413
971.32
905.411
931.624
911.294
978.742
990.74
976.817
965.906
960.535
978.285
978.195
965.844
895.297
963.3
942.476
898.427
985.43
967.933
967.839
976.191
958.585
965.934
947.86
984.708
958.492
966.016
931.583
930.466
905.318
992.44
964.403
969.031
928.272
980.101
940.101
977.33
934.073
965.998
905.255
978.302
978.616
976.311
907.423
937.792
907.401
967.357
916.208
938.894
979.444
977.219
911.789
895.166
921.268
902.792
967.979
902.651
983.642
978.809
906.232
980.038
902.357
969.812
970.006
989.945
910.601
907.773
936.139
969.029
902.092
980.77
907.43
900.715
969.059
1005.03
900.81
907.081
907.866
936.821
911.741
897.258
963.232
951.64
906.68
963.574
895.169
902.04
912.183
969.023
900.861
963.537
968.854
972.85
894.851
900.93
952.129
953.955
967.289
901.787
970.228
905.203
897.831
965.575
966.766
950.159
950.332
973.684
960.686
900.469
967.475
914.943
900.986
970.543
961.153
934.754
968.263
899.919
895.065
895.18
897.694
895.822
910.782
961.107
895.743
961.693
965.094
901.706
900.85
902.768
975.793
968.968
901.525
962.716
962.741
962.454
894.839
906.958
964.272
899.374
901.219
907.518
962.898
908.367
936.446
899.013
944.278
978.243
894.978
962.227
961.318
901.925
956.731
972.483
912.5
900.941
901.697
899.281
962.354
958.202
899.261
971.06
974.772
899.301
966.236
957.405
899.475
957.917
899.185
899.292
899.867
972.956
898.898
968.659
970.434
929.371
899.516
942.569
911.88
965.586
962.519
954.469
971.117
970.54
975.681
899.317
964.478
970.666
899.562
899.156
970.706
959.549
917.354
970.644
943.765
931.028
970.388
908.551
944.549
959.11
947.859
908.404
930.892
970.762
958.119
970.588
898.926
970.555
906.687
897.071
908.721
897.399
940.68
961.485
919.241
955.645
972.019
972.088
935.021
958.212
911.2
933.481
969.606
895.802
947.081
949.951
926.726
905.832
914.819
896.331
926.769
980.137
894.804
994.904
962.743
928.057
986.304
944.939
950.665
906.701
958.533
958.791
970.372
970.069
963.828
895.089
918.729
963.724
904.702
949.609
903.927
902.37
979.68
938.308
915.288
894.679
955.099
944.993
938.403
966.322
965.871
971.299
905.057
908.045
972.15
970.435
902.686
976.305
971.193
977.39
901.863
940.261
968.97
969.169
938.283
968.995
898.647
969.325
967.294
948.838
959.554
897.936
988.495
913.901
977.941
985.35
977.649
970.425
898.058
971.809
968.668
966.787
968.606
913.049
943.496
977.604
962.963
930.349
939.503
962.597
899.818
980.205
920.478
942.134
921.064
936.361
922.818
949.486
967.679
927.517
965.379
946.132
970.119
898.142
922.981
990.7
907.389
969.733
898.782
967.848
951.08
933.494
896.2
895.334
969.446
963.461
899.659
894.971
902.223
963.927
935.117
937.97
901.489
953.793
939.38
939.428
939.6
909.692
981.842
900.726
990.888
929.957
935.964
942.773
963.535
965.167
969.608
964.738
968.303
968.051
965.095
963.64
919.005
900.88
968.275
970.286
971.193
958.512
927.874
965.085
900.617
970.176
971.41
901.418
920.371
966.808
900.324
929.147
929.592
896.843
949.178
936.607
925.926
929.634
956.209
975.401
969.709
964.911
900.498
958.044
975.658
1004.9
899.036
968.395
970.343
967.544
974.948
970.326
968.049
899.297
898.549
901.597
970.267
969.466
900.787
898.742
921.803
915.348
957.671
977.52
962.278
959.09
958.195
967.578
966.927
963.419
962.708
977.392
958.338
970.406
970.378
913.687
914.109
913.322
970.571
970.609
1005.01
935.063
910.859
943.643
916.433
973.913
966.203
910.293
910.62
963.533
954.908
961.364
970.361
918.936
970.46
921.601
925.824
970.423
969.844
943.604
968.306
941.622
920.787
968.326
932.236
930.852
970.776
961.504
963.877
930.098
970.495
899.805
968.047
930.799
945.462
898.679
946.251
965.854
926.504
944.137
949.339
953.855
908.787
965.844
909.288
947.623
936.609
932.942
970.556
964.351
956.284
909.478
967.663
975.576
950.89
946.613
908.627
950.927
901.379
953.6
939.503
983.585
977.742
982.725
940.209
1004.88
901.718
993.068
970.096
921.663
973.687
911.135
964.06
931.259
901.842
984.618
907.641
960.84
961.616
910.097
928.414
909.077
904.218
927.409
928.555
904.237
965.961
985.372
902.38
977.334
992.526
980.842
940.869
968.58
981.587
902.646
981.216
900.326
975.206
983.718
966.003
965.485
963.898
916.811
903.54
969.072
965.03
966.058
895.074
960.694
985.731
957.035
904.188
964.413
967.353
965.306
966.015
978.987
903.963
966.55
975.213
902.862
975.29
903.51
973.239
978.658
931.11
979.274
970.401
985.151
974.486
900.801
913.771
968.966
900.902
931.282
968.403
945.435
966.348
956.187
900.194
913.349
979.182
900.19
987.508
899.312
965.26
972.489
966.098
966.036
939.239
900.359
965.67
952.128
965.678
965.811
965.725
965.67
969.671
965.822
965.6
965.788
954.572
948.525
900.336
972.743
899.269
899.361
899.154
966.136
960.045
964.463
957.801
955.318
941.413
967.278
962.313
962.605
931.827
932.523
966.29
965.689
962.677
965.964
897.34
919.497
896.715
945.009
963.394
957.27
963.546
897.476
962.857
948.677
896.749
975.611
913.321
965.852
902.628
975.823
965.382
937.638
966.143
965.833
897.559
971.321
965.223
988.741
977.671
965.959
905.055
965.173
972.505
971.83
898.694
899.277
952.463
944.248
963.648
916.524
966.577
896.678
898.762
934.201
897.641
896.95
951.068
946.215
899.159
949.503
970.13
974.52
959.295
902.591
964.615
913.327
927.998
961.603
950.995
913.988
969.345
945.006
964.191
911.973
900.479
899.797
950.706
915.072
924.976
916.541
971.099
921.965
898.728
945.853
905.837
906.851
912.152
961.812
898.229
979.345
929.018
899.078
910.863
909.245
943.823
1004.89
929.845
897.142
911.142
957.824
930.673
912.091
906.339
928.447
939.402
939.094
945.018
931.588
941.27
897.486
907.544
907.165
899.562
907.921
901.933
949.7
932.616
942.736
939.47
943.554
951.816
959.615
951.089
899.348
924.088
988.502
925.04
964.996
911.49
972.877
900.74
931.691
977.503
907.936
975.672
899.941
954.524
947.014
978.121
975.339
967.753
900.975
968.607
952.071
954.652
895.42
969.53
898.57
967.487
977.447
950.104
972.675
932.383
978.232
950.089
969.274
962.613
969.49
954.321
971.105
898.748
898.924
932.079
942.744
949.859
929.867
898.088
896.614
968.039
964.95
964.55
954.979
948.257
973.957
954.393
967.998
985.045
899.775
954.414
969.038
939.397
985.721
954.56
895.003
899.414
954.301
1002.42
965.155
948.883
969.653
971.317
954.649
969.306
919.515
901.981
896.375
899.38
932.924
899.078
960.108
965.547
899.22
971.498
898.883
899.265
961.957
945.286
960.281
974.989
953.265
959.27
945.248
967.584
960.268
974.926
952.752
969.313
956.972
898.944
966.863
912.541
974.757
973.691
965.429
920.862
908.785
959.424
977.041
899.551
897.077
980.281
897.166
1001.68
968.397
995.328
960.818
934.525
931.676
971.315
900.336
967.634
968.544
897.294
975.45
961.738
969.793
940.637
896.593
896.461
964.29
900.224
960.45
963.802
964.396
1001.05
947.773
961.95
991.128
951.217
973.65
977.106
968.195
966.81
959.891
959.31
980.38
959.344
969.233
969.961
900.69
970.843
900.411
902.744
981.642
900.079
959.747
916.492
973.601
967.829
916.533
916.03
924.28
943.602
900.938
969.292
980.173
960.825
961.975
931.207
960.81
967.686
959.474
951.586
988.68
941.813
979.925
959.905
927.943
975.668
928.791
969.311
960.294
970.614
980.068
947.9
899.242
965.58
966.558
960.506
900.923
901.113
901.012
963.595
959.514
944.958
900.913
900.992
914.336
950.066
950.755
924.736
900.209
909.192
900.291
973.447
1005.06
994.765
1004.98
965.099
927.038
900.308
927.106
945.969
982.448
950.051
895.261
897.827
899.205
900.136
945.529
918.799
946.366
949.316
898.051
968.648
959.93
978.642
954.888
904.669
895.005
954.897
950.577
900.464
917.243
929.772
990.58
950.917
958.236
901.59
976.768
948.95
959.824
898.991
957.946
965.331
962.108
968.13
906.533
965.582
959.773
898.47
927.706
934.681
963.334
943.936
951.753
966.443
960.269
961.158
946.316
954.107
900.603
950.934
962.127
958.865
971.103
915.485
905.939
976.397
973.777
976.029
960.758
977.23
900.509
907.247
959.057
976.688
978.342
973.794
907.479
960.544
930.498
895.084
940.005
904.864
990.152
901.683
978.527
978.988
965.22
960.393
914.614
961.056
930.034
902.417
902.493
952.947
966.802
896.765
896.838
928.668
951.022
949.243
896.534
967.553
953.515
903.43
931.627
968.03
986.221
981.35
935.376
981.852
962.88
921.927
967.999
914.698
912.405
896.623
968.758
898.444
948.072
983.626
960.133
949.924
948.95
986.218
959.599
974.474
952.005
980.125
949.477
978.213
967.256
949.178
904.697
939.712
971.997
953.365
898.706
968.059
969.594
898.455
961.301
937.201
967.526
970.978
957.961
960.374
968.011
938.802
959.83
895.138
922.176
898.5
966.189
935.308
965.988
939.685
967.211
911.018
902.23
969.073
965.794
967.752
960.741
968.53
959.964
952.253
959.314
969.925
984.018
975.517
960.374
930.411
969.709
911.233
914.142
926.887
931.926
963.835
953.557
971.03
974.3
973.739
939.628
959.697
957.276
898.446
952.518
960.561
929.264
963.516
969.733
898.22
963.511
932.917
967.351
959.855
968.006
912.52
912.188
898.496
972.872
914.229
903.819
912.715
911.074
910.093
909.358
962.694
959.575
910.045
911.581
902.378
968.672
958.196
902.002
910.206
966.175
964.451
963.111
901.967
959.854
948.165
904.382
975.627
900.363
930.797
929.106
928.138
947.976
903.202
934.064
930.229
969.356
965.166
985.135
903.418
951.657
901.011
962.994
949.556
952.745
932.856
936.543
961.559
899.876
963.524
904.326
958.973
963.44
898.84
900.263
958.375
958.673
969.748
897.557
970.328
945.31
950.42
969.049
965.534
961.101
960.068
906.58
942.399
966.248
954.669
953.444
927.923
960.804
960.88
962.904
967.321
953.928
972.751
961.337
898.526
966.052
895.482
945.255
965.435
946.314
897.494
941.099
966.835
959.866
913.654
967.02
959.22
898.544
941.432
899.261
899.77
959.903
949.129
957.938
966.301
958.955
944.769
898.831
953.235
979.998
967.337
938.9
895.836
955.97
966.514
950.379
947.156
896.885
964.961
969.585
968.798
950.41
896.486
897.024
918.86
952.846
968.345
959.051
903.81
896.631
950.872
965.391
948.529
974.065
959.956
941.605
938.206
931.997
902.784
953.522
967.744
953.604
958.266
972.378
959.526
898.264
959.015
973.705
919.14
968.883
901.078
896.016
918.387
943.692
960.642
976.559
959.311
959.435
959.506
959.417
946.54
918.473
960.05
930.598
958.239
940.607
936.901
917.278
921.023
923.612
903.788
894.681
903.706
900.954
924.311
963.829
910.426
909.308
960.12
908.101
912.543
967.379
903.267
967.065
944.069
911.477
968.618
941.159
940.056
966.27
903.552
947.439
906.645
963.796
963.262
963.341
939.807
903.864
907.032
962.141
902.939
926.554
916.18
903.764
931.588
943.704
934.557
972.678
967.583
945.145
929.625
919.781
956.211
903.369
971.423
900.179
967.586
971.384
951.6
937.611
958.464
947.206
954.133
930.154
972.148
960.938
897.486
951.531
900.687
949.139
930.35
902.233
904.979
903.905
903.721
904.743
979.762
968.252
965.889
902.428
951.487
932.543
971.977
903.815
944.43
903.71
958.411
986.327
972.88
968.546
905.068
928.329
937.041
975.432
948.738
951.9
952.815
954.136
973.913
959.58
977.221
960.223
952.818
901.643
950.894
975.042
919.867
980.184
902.052
902.441
960.989
898.937
957.909
966.497
901.432
902.59
901.412
963.388
950.552
906.662
946.788
950.145
953.826
964.813
899.77
900.889
901.487
901.632
971.885
949.705
901.882
1004.89
945.063
958.911
899.119
958.807
1001.72
948.709
897.274
899.686
945.187
966.08
977.916
985.376
944.544
900.058
944.793
949.582
898.579
911.493
899.573
966.216
975.531
966.02
961.237
932.533
910.671
899.436
982.709
981.905
926.446
968.338
967.678
961.858
952.682
963.317
986.168
899.929
959.37
899.835
899.813
959.511
899.967
972.742
962.946
937.433
919.043
942.873
901.437
963.835
963.675
956.58
931.629
959.892
959.479
963.252
900.755
963.078
901.701
991.024
902.108
981.543
963.404
900.775
963.233
970.406
896.281
1001.83
900.825
969.251
914.404
991.153
958.393
900.545
911.439
981.839
941.23
962.106
908.784
1000.14
938.108
981.395
968.616
963.31
988.505
971.973
979.886
977.82
901.209
899.083
969.763
903.149
970.587
899.001
901.718
898.915
898.968
985.833
939.944
960.644
966.153
980.233
899.303
968.507
966.656
910.022
928.128
974.238
970.931
952.314
950.335
946.456
898.831
924.186
961.2
899.23
901.263
951.364
914.592
912.174
951.077
932.878
903.291
970.498
969.515
979.729
900.456
962.612
920.956
960.417
954.55
971.062
896.154
899.436
910.836
970.256
995.109
898.222
966.139
898.881
931.637
959.197
954.167
962.842
976.501
966.611
934.332
952.931
934.908
910.585
951.913
917.703
952.748
950.318
964.295
963.437
895.788
897.764
960.212
898.136
952.007
958.425
908.244
959.671
918.907
900.243
986.44
899.407
899.293
899.119
894.838
910.553
959.822
944.567
903.482
895.884
942.426
951.471
898.835
957.874
907.831