/*--------------------------------*- C++ -*----------------------------------*\
| =========                 |                                                 |
| \\      /  F ield         | OpenFOAM: The Open Source CFD Toolbox           |
|  \\    /   O peration     | Version:  2112                                  |
|   \\  /    A nd           | Website:  www.openfoam.com                      |
|    \\/     M anipulation  |                                                 |
\*---------------------------------------------------------------------------*/
FoamFile
{
    version     2.0;
    format      ascii;
    arch        "LSB;label=32;scalar=64";
    class       volScalarField;
    location    "870";
    object      p;
}
// * * * * * * * * * * * * * * * * * * * * * * * * * * * * * * * * * * * * * //

dimensions      [0 2 -2 0 0 0 0];

internalField   nonuniform List<scalar> 
160405
(
0.558433
0.180163
0.545532
0.0249729
0.0274969
0.186619
0.0263337
0.0923035
0.199819
0.028168
0.148807
-0.00626782
0.0256993
0.0349516
0.605846
0.258037
0.626469
0.172816
0.341136
0.0358359
0.173266
0.0258764
0.273982
0.497028
0.196331
0.0246709
0.0250784
0.138129
0.0242599
0.326105
0
0.0977331
0.174955
0.0249445
0.499216
0.0281742
0.380409
0.0243736
-0.0204233
0.0250622
0.0333985
0.0354147
0.0254733
0.325065
0.0302502
0.0253136
0.521354
0.62014
0.0283613
0.0252497
0.394806
0.028966
0.0291085
0.0268746
0.0904251
0.0242731
0.222662
0.189752
0.0618189
0.192101
0.0284389
0.0404838
0.112481
0.162048
0.0181426
0.453322
0.602702
0.0309498
0.0486433
0.544072
0.500412
0.0291228
0.0349081
0.49679
0.00399282
0.0946724
0.0409116
0.0653974
0.587567
0.149796
0.545003
0.0353591
0.544517
0.531137
0.0327397
0.549035
0.0641797
0.198242
0.308707
0.221629
0.0305205
0.125089
0.035872
-0.0204273
-0.0133868
-0.0157696
0.0105298
-0.00683665
0.145164
0.0311071
0.0184063
0.443981
0.501615
0.165322
0.031688
0.202714
0.481139
0.0321064
0.100714
0.052994
0.0222501
0.0218594
0.0487772
0.0322776
0.244402
0.348703
0.0726056
0.0212839
0.023169
0.0225698
0.0317523
0.0506076
0.514204
0.0175891
0.017818
0.164564
0.292205
0.0175534
0.283026
0.594439
0.0350811
0.0376763
0.316213
0.0330648
0.49504
0.103567
0.0297699
0.264876
0.0293521
0.194692
0.378878
0.441414
0.0281403
0.0313946
0.0373213
0.0361953
0.0288827
0.242058
0.0295998
0.243577
0.0394501
0.0370626
0.0371253
0.0373573
0.0239535
0.0380247
0.0543059
0.0376207
0.0225331
0.253456
0.0376505
0.468804
0.037924
0.0415553
0.12537
0.039584
0.0404806
0.360865
0.488218
0.0433795
0.0190074
0.0217331
0.54441
0.40151
0.209463
0.0214339
0.390018
0.478556
0.0203184
0.209303
0.0188904
0.296789
0.416197
0.0154102
0.188098
0.0161765
-0.0178088
0.0295063
0.304145
0.0143413
0.0329653
0.0329727
0.555096
0.0323748
0.310331
0.222615
0.281584
0.489304
0.0225006
0.452107
0.339412
0.0343192
0.48089
0.54537
0.0219836
0.0242
0.544481
0.480288
0.476217
0.151259
0.0232676
0.436183
0.377033
0.522775
0.0225472
0.561774
0.478276
0.545463
0.498927
0.532736
0.0269995
0.0142266
0.31787
0.0323893
0.546701
0.0381834
0.018124
0.441294
0.0319667
0.0366581
0.0383576
0.408287
0.0411255
0.24085
0.0393651
0.470126
0.545002
0.0422423
0.0388488
0.0379115
0.0363848
0.218623
0.425653
0.406665
0.484813
0.24245
0.269533
0.533005
0.376043
0.0256894
0.0364248
0.036172
0.159593
0.260274
0.0371989
0.129349
0.381576
0.0378674
0.0383044
0.0385412
-0.00916264
0.251144
0.214306
0.0372576
0.598638
0.400782
0.0365138
0.196336
0.545691
0.0342978
0.0366336
0.0369289
0.0371333
0.025704
0.432509
0.0152968
0.0407762
0.0445135
0.0119865
0.0284061
-0.0150571
0.310672
0.310354
0.0284793
0.0723302
0.0116896
0.262742
0.0392942
0.027075
0.550175
0.254371
0.0454925
0.547045
0.245089
0.0419901
0.0408058
0.0558233
0.0243499
0.233716
0.0540692
0.313577
0.551061
0.0533977
0.291149
0.0131805
0.0998852
0.0129902
0.0117213
0.366227
0.0507182
0.247907
0.0119948
0.544988
-0.0154536
-0.0225043
0.0476547
0.0573435
0.054846
0.0447266
0.488796
0.0129633
0.0825056
0.0524161
0.545295
0.0129924
0.0125009
0.0449143
0.130655
0.497264
0.527554
0.0193905
0.0155327
0.426542
0.0137528
0.547684
0.262649
0.426014
0.0113413
0.508411
0.355612
-0.0146592
0.0173364
0.04261
0.519488
0.551594
0.0468138
0.311932
0.54606
0.0460844
0.0451754
0.0490081
0.0745395
-0.0104067
0.0129539
0.571398
0.325008
0.430714
0.208339
0.287959
0.0463029
0.0473111
0.25807
0.244358
0.041613
0.110021
0.047973
-0.0101074
0.494073
0.192065
0.381393
0.0498517
0.415614
0.249723
0.49039
0.0151592
0.0517808
0.556144
0.0245259
0.0182073
0.217721
0.0489745
0.312664
0.0295306
-0.0191986
0.221845
0.546793
0.017097
0.398963
0.0401386
-0.0148199
-0.00968623
0.0184828
0.0183213
0.0425772
0.0440705
0.0203666
-0.0166455
0.0126622
0.508116
0.502972
0.561365
0.107615
0.0444257
0.0452792
0.253587
0.0450466
0.121145
0.0464161
0.537427
0.198865
0.0143241
0.029708
0.492012
0.537473
0.374291
0.0389322
0.353848
0.0868136
0.0469738
0.243488
0.0145047
0.0147249
0.605763
0.599796
0.544826
0.0168252
0.0188948
0.0162606
-0.0143953
0.0469904
0.0473349
0.0477459
0.0167731
0.331899
0.0153347
0.0331343
0.002843
0.279146
0.00161553
0.518121
0.508422
0.0493874
0.50788
0.431439
0.498337
0.621501
0.507917
0.0444539
0.0443635
0.0436689
0.00180279
0.0453767
0.0465619
0.0470764
0.0913376
0.226902
0.0152909
0.00511846
0.364857
0.254739
0.00758608
0.0507935
0.091218
0.173366
0.528966
0.00815899
0.531158
-0.0195264
0.0484336
0.545246
0.0470311
0.549233
0.322859
0.125765
0.0511969
0.0511031
0.0104809
0.471153
0.322713
0.0362881
0.00991821
0.0511217
0.0107656
0.312782
0.322502
0.315532
0.201577
0.0795835
0.0513589
0.00580815
0.0618549
0.00773776
0.00807261
0.127857
0.00746565
0.00583386
0.0490145
0.0598279
0.00458568
0.0124749
-0.000148826
0.595585
0.0653946
0.266425
0.113794
-0.00382547
0.00196819
0.00413648
0.0639542
0.463144
0.545502
0.0711669
-0.0066024
0.376952
0.254521
0.0392356
0.00312165
0.0699415
0.0120139
0.00557816
0.490577
0.37719
0.00519566
0.224499
0.0516119
0.357484
0.328225
0.2607
0.41838
0.0512846
0.604855
0.224662
0.00616327
0.255082
-0.0232931
0.289244
-0.000154022
-0.000603612
-0.000594406
0.051629
0.159437
0.545656
0.00543809
0.240333
0.0863409
0.201115
0.436825
0.56162
0.274919
0.176642
-0.00052331
0.0852075
1.07546e-05
-0.0179338
0.0857924
0.085727
0.38265
-0.00230227
0.0732204
0.0850812
-0.00217673
0.0919215
0.356595
0.457267
-0.00160139
0.0559423
0.00640785
0.440484
0.529865
0.50765
0.0917066
0.056399
0.21695
0.0561683
0.0561379
0.0558663
0.466326
0.406692
0.544065
0.382132
0.0663897
0.202808
0.130056
0.310181
-0.00135708
-0.023418
-0.0184883
0.538606
0.505052
0.544922
0.532455
-0.0013289
0.136722
0.500838
0.0619959
0.00107994
0.364447
-0.0168041
0.549683
0.06206
0.00151946
0.0570208
0.547112
0.0571905
0.327905
0.557694
0.125507
0.528201
0.555464
0.0572743
-0.000836959
0.546
0.0566209
0.0561293
0.545972
0.538472
0.36591
0.0579811
-0.0017951
-0.00274214
0.503772
0.0580458
0.542767
0.0591024
0.355357
0.550208
0.548278
-0.00390097
0.0587796
0.0582703
0.0584169
0.395768
0.0590228
0.54757
0.0583544
0.534895
-0.00288783
0.547519
0.0296579
0.430895
0.387498
0.00516591
0.345783
-0.00384119
0.058572
0.0596064
0.0735432
0.0129734
-0.00413729
0.0621184
0.192156
0.064005
-0.0209929
0.14408
0.0354413
-0.0230844
0.0529353
0.316307
0.15677
0.0205258
-0.0043416
0.0644379
0.0540196
0.17485
0.323034
0.0402935
0.229854
0.475856
0.41561
-0.00430155
0.43961
-0.00342407
-0.00398339
0.0430546
-0.00271176
0.0627533
0.372373
0.544524
0.00577229
0.0789069
0.00489515
0.0281292
0.00831303
0.00840711
0.00514502
0.104684
0.115972
0.120999
0.159393
0.0953801
0.0800015
0.114547
0.148247
0.490268
0.0834124
0.00566952
0.006924
-0.00555781
0.138667
0.446125
0.123652
0.160194
-0.00390264
0.0894022
0.0947989
0.0128724
0.0933607
0.429546
0.220076
0.0885585
0.0849606
0.154725
0.0602254
-0.00433783
-0.00368931
0.121305
0.220594
0.00296059
0.180778
0.505386
0.0611248
0.207914
0.142872
0.28322
0.00335745
0.0609999
0.187602
0.00129658
0.0609409
0.0601597
0.147865
0.139584
0.243579
0.0709092
0.569269
0.070826
0.212675
0.617276
0.0712576
0.404969
0.411933
0.467211
0.513422
0.249202
0.248439
0.307131
0.000943497
0.423368
0.250328
0.545003
0.433177
0.240815
0.0709489
0.347646
0.236958
0.0652502
0.41832
0.212441
0.0647587
0.372479
-0.00267086
0.000418553
0.00148712
0.0648371
0.374788
-0.0018691
0.288211
0.0715179
0.275174
0.00132031
0.0714642
0.0666025
0.218217
0.448136
0.29029
0.0671181
0.422339
0.257285
0.373986
0.115032
0.0661941
0.0654552
0.149679
0.360097
0.00327053
0.0645446
0.345763
0.229052
-0.00474363
0.342917
0.361812
0.0656109
0.333672
-0.00287479
0.0661019
0.390895
0.343491
0.245519
0.315859
0.437027
0.373395
0.457756
0.401492
-0.00473776
0.35424
-0.0199998
0.0707571
0.363887
-0.00499584
0.07919
0.0655689
0.33532
0.0713656
0.465851
0.198566
0.376684
-0.00506224
0.361194
0.405228
-0.0120935
0.522455
0.461993
0.0708328
0.39079
0.0704009
0.46686
-0.0113523
0.096868
0.44041
0.374641
0.528207
0.439298
0.474288
0.0919644
0.460306
0.494301
0.373678
0.0947354
0.50924
0.0104524
-0.0121848
-0.0107689
0.443686
0.0923308
0.415209
0.456956
-0.0108846
0.485734
0.501321
0.0956557
0.279757
0.0389916
0.0756114
-0.0108454
-0.0107266
-0.0103741
0.180909
0.431764
-0.0114737
0.516762
0.0788747
-0.0110189
0.531822
0.546355
-0.0126307
0.0800706
0.544528
0.512976
0.215489
-0.0117566
-0.0175431
-0.00199718
0.0756202
0.548938
-0.011748
0.0412233
0.0160532
0.00457918
0.0270287
0.0641743
0.312101
0.241651
-0.000902292
0.0770119
0.145875
0.0922454
0.594807
0.077334
0.125054
0.0703391
0.201142
-0.000101961
0.157025
0.0782438
0.0688463
-0.000805565
-0.00418887
0.450747
0.119365
0.286128
-0.000422246
-0.00278458
0.0771229
0.0701699
0.45228
0.18813
0.106962
0.069505
-0.0132128
0.0698621
0.0877208
0.189745
0.0733537
0.452316
0.235451
0.0703006
-0.0149977
0.15576
0.105487
-0.0141037
-0.0160838
0.0316023
-0.0159588
0.0882502
-0.0177875
0.0717297
0.310623
0.187268
0.372165
0.103236
0.372722
0.102676
0.180218
0.255203
-0.0134871
0.171041
0.343111
0.0126409
0.290621
0.425565
0.263306
0.180407
0.260636
0.146306
0.10444
0.105394
0.0126087
0.204954
0.231081
0.0130372
0.273227
0.212531
0.220077
0.212137
0.328694
0.169405
0.335568
0.220679
0.0135952
0.0135602
0.0691219
0.0124756
0.354926
0.071494
0.315182
0.20936
0.0728231
0.0726007
0.0730173
0.0704989
-0.00619315
-0.00834189
0.390256
0.384955
0.408602
0.0700541
0.428683
-0.0041485
0.335251
0.544523
0.409184
0.0751542
-0.0056822
0.0786982
0.0603967
0.0804234
0.544859
0.453527
-0.00757465
0.263536
-0.0142683
0.134205
0.0843172
0.335659
0.121665
0.497215
0.222388
0.11358
-0.0131343
0.516048
0.40832
0.0755352
0.0752964
-0.012432
0.485952
0.51157
0.0760354
0.406706
0.0759036
0.335879
0.555074
0.0782966
0.0780966
0.0105829
0.250646
-0.0144297
-0.0229756
0.0176746
0.412905
0.0154293
0.00463088
0.433613
0.254127
0.169083
0.588167
0.154275
0.0775889
0.0761008
0.160531
0.394195
0.368064
0.380455
0.00380879
0.0793324
0.223204
0.129544
0.0635713
0.329196
0.148545
0.00237534
0.15014
0.00947278
0.0834986
0.249476
0.200147
-0.0165798
0.151702
0.224416
0.512098
0.088707
-0.0150448
0.0868926
0.0871668
0.0805045
0.207287
0.364452
-0.0145186
-0.016827
0.0796018
0.0832395
0.271537
-0.0167351
0.109718
0.264828
0.197178
-0.0159521
0.311652
0.0849141
0.0807327
0.38837
0.337702
0.431708
0.195933
0.37297
0.0846986
0.0786572
0.517003
0.383152
0.305223
0.312974
0.392745
-0.0151517
0.0816041
0.0817923
0.0812418
0.455962
0.300548
0.0810229
0.0792152
0.446008
0.360085
-0.0202611
0.435541
0.254455
0.475094
0.62922
0.377831
0.0617034
0.0808528
-0.0204523
-0.00955889
0.0841594
-0.00679544
0.0840235
0.507772
0.442032
0.544719
0.216903
-0.0167341
-0.0198555
0.526264
0.522579
-0.0174733
0.00649784
0.262824
-0.0180522
0.491612
0.0134873
0.255205
0.392509
-0.0219565
0.00725689
-0.0218009
-0.0214562
-0.0207202
0.0235441
0.0124824
0.0329988
0.158989
0.0496136
0.0913536
-0.0203419
-0.0193781
0.0394212
0.0507289
0.0858372
-0.00120568
0.233275
0.0864051
0.384924
0.141198
0.0522872
0.0855783
0.129773
0.252718
0.0872233
0.110191
0.0670604
0.0845534
0.0379975
0.0876586
0.116505
0.0873199
0.0381452
0.181287
0.099958
0.0328559
0.0650499
0.0991473
-0.0203313
0.326625
-0.0178295
0.0339729
0.22782
-0.0200955
0.516352
0.104459
0.464693
0.0416808
0.0968062
0.0270792
0.212029
0.249424
0.0677465
0.203272
0.0882682
0.0939688
0.511521
0.132969
0.0935781
0.140684
0.0975049
-0.00408275
-0.0202341
0.0925464
0.0929597
-0.0203428
0.0922265
0.138459
0.137333
0.0957275
0.154907
0.186601
-0.0202108
-0.020583
0.130768
0.107751
0.0977604
-0.0207283
0.164486
0.34044
-0.0209192
0.0570255
-0.0230278
-0.0211007
-0.0197741
0.295422
0.194179
-0.0138301
0.0956273
0.129739
-0.0211419
-0.0188083
0.421137
0.164366
-0.0199906
-0.0209363
0.225081
-0.0182983
0.0903737
0.543324
0.544379
0.226069
0.544583
0.547084
0.545174
0.244582
0.57029
0.337985
0.274346
0.0994471
0.241205
0.199553
0.0983
0.248413
0.098229
0.245858
0.54566
0.325497
0.351119
0.363606
0.0978693
0.278768
0.278852
0.314349
0.277735
0.0995004
0.54535
0.222433
0.244276
0.542555
0.356539
0.304687
0.279085
0.0973774
0.25488
0.54443
0.227903
0.0954419
0.379505
-0.0158292
0.0933469
0.545755
0.283446
0.092056
0.351595
0.289599
0.382287
0.545037
0.092325
0.22365
0.336146
0.467442
0.205845
0.380282
0.0874192
0.370333
0.172106
0.317448
0.454166
0.459054
0.093485
0.327438
0.303879
0.312209
0.545975
0.383876
0.369618
0.372871
0.545528
0.0948025
0.541049
0.467193
0.0991421
0.54046
0.0937296
0.36917
0.408808
0.388266
0.103417
0.390316
0.102058
0.435427
0.245432
0.489066
0.294989
0.403691
0.221651
0.102234
0.390638
-0.0026741
0.470967
0.347886
0.540814
0.396294
0.42396
0.105688
0.101082
0.542217
0.137109
0.544067
0.426703
0.385163
0.342696
0.396681
0.103509
0.541851
0.30349
0.518473
0.102232
0.385055
0.043581
0.480149
0.490836
0.10309
0.546813
0.519655
0.0948693
0.0949726
0.543337
0.0960626
0.0980462
0.522125
0.530472
0.541235
0.0970206
0.27053
0.422001
0.541422
0.098193
0.469044
0.178822
0.0976886
0.386295
0.541777
0.372095
0.0976919
0.179337
0.0971423
0.0973749
0.550988
0.123939
0.537696
0.544001
0.477568
0.244741
0.121736
0.542616
0.00447095
0.556621
0.16777
-0.0140028
0.323752
0.123928
0.547878
-0.0148813
0.118637
0.17022
0.0337653
0.546683
0.0255385
0.29323
0.00742054
0.20894
0.0175396
0.101589
0.101606
0.0813026
0.547273
0.0791973
0.021133
0.0995177
0.372889
0.547305
0.0256316
0.545865
0.102022
0.101132
0.104535
0.122831
0.316759
0.109895
0.368885
0.0502189
0.0517205
0.544991
0.1036
0.109548
-0.00566568
0.104466
0.544431
0.544472
0.0994332
0.245335
0.545486
0.553208
0.552545
0.0982456
0.0984139
0.167765
0.128437
0.12762
0.368218
0.553424
0.202381
0.352274
0.192056
0.54994
0.187893
0.401267
0.50966
0.314665
0.128271
0.128355
0.100284
0.101072
0.191568
0.100802
0.101076
0.495885
0.371423
0.276006
0.392573
0.553732
0.102248
0.101967
0.254432
0.553001
0.186711
0.104721
0.250628
0.104003
0.371226
0.333894
0.223561
0.272724
0.16736
0.284629
0.325955
0.260227
0.102005
0.240224
0.29922
0.167105
0.331461
0.10557
0.281977
0.105658
0.311607
0.545239
0.332156
0.105125
0.609932
0.104703
0.0218144
0.104032
0.464091
0.498527
0.551689
0.10581
0.537771
0.103063
0.503219
0.330715
0.582553
0.541051
0.354477
0.287347
0.336824
0.318851
0.538314
0.105967
0.104735
0.103335
0.282013
0.35739
0.541005
0.383958
0.103324
0.404015
0.257892
0.539933
0.548415
0.538699
-0.00436854
0.543548
0.104139
0.436209
0.479069
0.471543
0.104611
0.471271
0.457844
0.0280578
0.253316
0.0252145
0.105213
0.141218
0.543634
0.107041
0.101672
0.545796
0.0681705
0.492759
0.176507
0.126426
0.09558
0.211294
0.104043
0.545319
0.315599
0.272535
0.372795
0.564691
0.145454
0.108694
0.110646
0.110375
0.0736583
0.54662
0.54494
0.0870484
0.0907824
0.0668159
0.0403763
0.147992
0.127579
0.124009
0.0341225
0.098386
0.564193
0.392882
0.116685
0.546954
0.0536023
0.118032
0.232021
0.416027
0.542799
0.151031
0.544852
-0.00609121
0.163048
0.137613
0.164043
0.157208
0.112646
0.109654
0.173806
0.494637
0.324057
0.378729
0.266545
0.335426
0.211623
0.54469
0.543634
0.360653
0.31284
0.548145
0.425707
0.109143
0.396846
0.134679
0.416831
0.310914
0.544586
0.544877
0.42104
0.544473
0.544284
0.44439
0.495187
0.361523
0.156299
0.442171
0.405259
0.559982
0.11135
0.53966
0.537891
0.459316
0.538442
0.538057
0.458992
0.382558
0.537808
0.113226
0.0879119
0.537606
0.531477
0.539367
0.374819
0.111946
0.11013
0.453428
0.111394
0.467243
0.539175
0.0493257
0.117633
0.0792261
0.538427
0.122312
0.0100627
0.108276
-0.0101404
-0.016662
0.269149
0.184795
0.299231
0.555211
0.00935563
0.166694
0.503312
0.386736
0.236332
0.496207
0.0477072
0.0450036
0.101417
0.53883
0.118219
0.0629544
0.544999
0.458968
0.0729368
0.542488
0.072861
0.386227
0.489719
0.0256429
0.174302
0.543012
0.543092
0.0830008
0.0814916
0.557063
0.552651
0.113453
-0.0141238
0.323713
0.345679
0.116883
0.555809
0.0487153
0.222856
0.127109
0.0661384
0.119884
0.494313
0.053762
0.129955
0.545465
0.120144
0.0980492
0.0954896
0.13637
0.0966584
0.546281
0.205716
0.118912
0.0532045
0.100233
0.120059
0.525629
0.545658
0.250426
0.132617
0.113321
0.54415
0.571055
0.113807
-0.00539472
0.182219
0.115284
0.187867
0.544434
0.113284
0.406792
0.466924
0.198924
0.231794
0.360193
0.13114
0.206105
0.120441
0.400314
0.339601
0.379961
0.391354
0.461862
0.410264
0.35299
0.341077
0.544589
0.341536
0.0264866
0.254011
0.544434
0.118345
0.545364
0.192949
0.4136
0.19619
0.285531
0.225693
0.546982
0.413338
0.413346
0.352352
0.271346
0.3715
0.237672
0.54279
0.125353
0.121951
0.489327
0.248554
0.266799
0.55371
0.551038
0.132495
0.287913
0.559371
0.622516
0.135133
0.370328
0.272891
0.131055
0.118235
0.551028
0.349078
0.342446
0.550175
0.549543
0.337569
0.34205
0.547419
0.326298
0.279735
0.388205
0.552252
0.304889
-0.0149948
0.494453
0.356389
0.370001
0.322184
0.257436
0.373761
0.334325
0.243528
0.356409
0.365621
0.405944
0.244852
0.583995
0.418124
0.430722
0.324048
0.42113
0.244602
0.412523
0.34538
0.237511
0.36894
0.115599
0.458772
0.502739
0.414641
0.494078
0.544864
0.324435
0.468564
0.23143
0.42857
0.460738
0.448616
0.438707
0.120007
0.53685
0.498365
0.428361
0.12021
0.120299
0.231528
0.447251
0.120182
0.319206
0.628587
0.628566
0.552123
0.471388
0.23749
0.476612
0.437856
0.517133
0.349921
0.462674
0.414747
0.458004
0.486085
0.0102814
0.485942
0.455634
0.0124294
0.498138
0.54351
0.540989
0.542515
0.453318
0.545338
0.539782
0.546547
0.120845
0.469584
0.456742
0.546169
0.547006
0.54649
0.523212
0.328499
0.501403
0.120994
0.586948
0.0359402
0.0323539
0.120416
0.0268359
0.2201
0.544449
0.119089
0.412322
0.119802
0.122375
0.581009
0.543888
0.546143
0.536211
0.547467
0.536685
0.546932
0.120578
0.515121
0.544514
0.537943
0.545168
0.456109
0.42677
0.0674616
0.253304
0.133903
-0.0139213
-0.00806745
0.121571
0.332737
0.112666
0.54642
0.117873
0.119788
0.0918323
0.548331
0.0332029
0.0612725
0.120934
0.548338
0.0624637
0.0114497
0.0355605
0.0184135
0.548928
0.0700584
0.122447
0.0272284
0.494364
0.264558
0.124785
0.493853
0.497135
0.129375
0.129738
0.0407384
-0.0145966
0.545721
0.543243
0.142207
0.0691361
0.543901
0.547227
0.133067
0.105455
0.12931
0.130933
0.497827
0.133269
0.54562
0.128883
0.133232
0.104921
0.544458
0.544972
0.538373
0.514715
0.529376
0.128648
0.126854
0.135659
0.550259
0.54449
0.125985
0.290345
-0.0212522
0.126498
0.547096
0.1263
0.24368
0.126456
0.220734
0.126007
0.126286
0.0756159
0.149851
-0.00227783
0.285756
0.12654
0.127676
0.0368047
0.0818326
0.547943
0.2598
0.515698
0.228273
0.279531
0.349431
0.28628
0.327439
0.126832
0.547968
0.127174
0.113868
0.401712
0.366501
0.45119
0.350978
0.127236
0.3608
0.127549
0.306041
0.526223
0.426458
0.516022
0.627898
0.386095
0.517381
0.321406
0.493028
0.132894
0.128929
0.345309
0.442272
0.271588
0.129459
0.281103
0.494157
0.483644
0.461385
0.46503
0.344249
0.281536
0.12832
0.320956
0.516713
0.538949
0.129112
0.323972
0.439806
0.218592
0.445278
0.125674
0.548292
0.53924
0.135911
0.131565
0.135483
0.134449
0.000103162
0.134648
0.130205
0.0215615
0.093527
0.539784
0.541818
0.475619
0.443057
0.54474
0.423931
0.12983
0.540602
0.0124383
0.36623
0.335606
0.359841
0.141775
0.404999
0.375786
0.348708
0.340889
0.334804
0.363901
0.271126
0.542134
0.141363
0.33989
0.366232
0.251017
0.544864
0.204361
0.523025
0.141338
0.520916
0.0156997
0.0993792
-0.00248949
0.492259
0.524154
0.141087
-0.00414768
0.0565638
0.141646
0.144282
0.181787
0.141316
0.141347
0.452568
0.132355
0.523506
0.184081
0.452158
0.303565
0.483697
0.022299
0.130292
0.087025
0.492532
0.173339
0.182172
0.150551
0.236937
0.172877
0.0861511
0.230292
0.245827
0.221685
0.489589
0.130709
0.241628
0.301345
0.243228
0.473817
0.56698
0.350533
0.531685
0.363498
0.493671
0.343462
0.522759
0.356106
0.447877
0.541805
0.544527
0.363541
0.544567
0.392689
0.296838
0.416373
0.499632
0.546245
0.487456
0.136093
0.544196
0.221739
0.503548
0.133558
0.536227
0.131967
0.130921
0.1341
0.502888
0.547822
0.134867
0.482693
0.315692
0.526671
0.377857
0.251766
0.269932
0.262204
0.13465
0.543526
0.286862
0.154117
0.36799
0.545648
0.380418
0.293188
-0.00193381
-0.00743916
0.0318959
0.134201
0.0874911
0.0246331
0.0165034
0.134116
0.566726
0.268187
0.034579
0.46916
0.0432154
0.13115
0.131341
0.0309239
0.136723
0.544465
0.487073
0.0369476
0.136982
0.134829
0.541495
0.442984
0.544944
0.0372279
0.0562632
0.12491
0.494512
0.0143743
0.439885
0.0289276
0.0398306
0.134469
0.545469
0.0242656
0.0312712
0.0318896
0.150449
0.0436823
0.146198
0.0994975
0.069993
0.0495349
0.0525284
0.0371547
0.0967326
0.605169
0.19366
0.237489
0.0809154
0.243084
0.0677335
0.0130758
0.160637
0.0675717
0.25302
0.063611
0.118719
-0.0126928
0.217622
0.146801
0.50284
0.123996
0.265489
0.0727571
0.144789
0.325392
0.0577394
-0.023573
0.319748
0.153017
0.141413
0.367758
0.149719
0.569858
0.150865
0.243865
0.294643
0.150846
0.603246
0.141433
0.15176
0.122368
0.319032
0.150914
0.112895
0.107224
0.616903
0.315817
0.201025
0.476102
0.133341
0.276274
0.168676
0.146488
0.531826
0.165652
0.357187
0.197933
-0.0104449
0.11359
0.1796
0.338189
0.250805
0.135698
0.314783
0.301662
0.000219137
0.136135
0.226117
0.366328
0.626487
0.627402
0.530488
0.590965
0.206824
0.213289
0.591984
0.208553
0.202405
0.275992
0.201453
0.226053
0.30407
0.240573
0.284671
0.141197
0.360532
0.14226
0.623521
0.271418
0.254513
0.329079
0.303037
0.493047
0.251913
0.138098
0.50136
0.340368
0.239727
0.0283857
0.61822
0.141114
0.255453
0.26949
0.277003
0.282495
0.351322
0.387753
0.279519
0.417146
0.141332
0.4369
0.414871
0.181426
0.313152
0.414078
0.319549
0.139347
0.402092
0.139104
0.423109
0.411799
0.374874
0.347599
0.436051
0.183049
0.148649
0.00302866
0.370283
0.48986
0.044128
0.544512
0.142756
0.430086
0.362002
0.152888
0.304089
0.412241
0.36747
0.150431
0.394745
0.420851
0.152077
0.400624
0.321328
0.150731
0.45684
0.500537
0.152836
0.126201
0.479899
0.419555
0.333975
0.128657
0.500848
0.181401
0.434809
0.150335
0.351228
0.143469
0.150083
0.538287
0.122275
0.503591
0.539617
0.423006
0.528537
0.41752
0.140706
0.1404
0.451107
0.465335
0.44395
0.360862
0.191163
0.56109
0.367567
0.442922
0.483205
0.16497
0.301525
0.568292
0.148293
0.0124939
0.622207
-0.0180748
0.545522
0.146842
0.0538551
0.524218
0.144756
0.149727
0.148124
0.54465
0.150083
0.5445
0.150077
0.567346
0.0546852
0.151531
0.542604
0.312364
0.140603
0.256071
0.0892172
0.509763
0.537423
0.623458
0.149941
0.453426
0.494043
0.201658
0.159748
0.113828
0.544438
0.131922
0.143028
0.14572
0.241374
0.00617207
0.0520496
0.0615911
0.272171
-0.00355713
0.146832
0.148325
0.495564
0.123798
0.453009
0.14797
0.348239
0.350341
0.0660715
0.496943
0.041673
0.0887535
0.0741152
0.00237628
0.0925431
0.145649
0.48538
0.144984
0.224924
0.236291
0.0802118
0.14052
-0.0197959
0.0283453
0.254856
0.144261
0.00239662
0.113791
0.55085
0.074106
0.0452043
-0.0128535
0.0441295
0.000780703
0.0392704
0.302086
0.311394
0.150562
0.349504
-0.0108642
0.181608
0.451748
0.153477
-0.00754487
0.53505
0.545747
0.447595
0.15296
0.297604
0.00888091
0.573785
0.606872
0.197323
0.152511
0.31129
0.622015
0.410692
0.151544
0.463462
-0.0115736
0.286361
0.47431
-0.0151393
0.524512
-0.020249
0.549252
0.0778559
0.324206
-0.0108619
0.461507
-0.000284057
-0.0140131
0.141269
0.153915
0.12608
0.154205
0.154534
0.155543
0.207523
0.149336
0.0251906
0.32874
0.15372
0.110816
0.14008
0.155313
0.140124
0.154425
0.331071
0.17669
0.178396
0.40341
0.05158
0.406272
0.334353
0.0225
0.0165865
0.543493
0.520914
0.499288
0.114329
0.0235953
0.17839
0.174908
0.169847
0.242391
0.338895
0.178522
0.169963
-0.0174798
0.430518
0.178484
0.150463
0.298318
0.31298
0.14976
0.339553
0.413575
0.459215
0.161112
0.150625
0.222128
0.319071
0.447503
0.153423
0.0778538
0.154856
0.0302037
0.0728057
0.1574
0.155396
0.0882135
0.100657
0.182002
0.105591
0.0863239
0.217173
0.153746
0.15465
0.0958061
0.0830473
0.0832861
0.151482
0.150574
-0.0225883
0.011859
0.105171
0.282116
0.117692
0.105745
0.157766
0.110231
0.105432
0.263429
0.159967
0.269038
0.15504
0.0551744
0.153553
0.0480287
0.0346033
0.153996
0.317817
0.29779
0.154824
-0.0155563
0.0539725
0.154515
0.01303
0.380293
0.151655
0.342238
0.312089
0.413624
0.149858
0.473653
0.151878
0.0141462
0.452898
0.428164
0.483998
0.158595
0.467359
0.458547
0.51772
0.474922
0.221932
0.158722
0.127099
0.331399
0.000643131
0.0128852
0.3761
0.417997
0.398491
0.122295
0.157131
0.29052
0.269946
0.358384
0.174314
0.154075
0.168346
0.244488
0.358517
0.0700254
0.0266247
-0.00163899
-0.00840336
-0.0233734
0.170529
0.0412323
0.0363256
0.175575
0.111958
0.170955
0.156073
0.500913
0.17479
-0.00857664
0.136589
0.392941
0.333731
0.431258
0.0238832
0.173604
0.198994
0.160058
0.156803
0.197909
0.196518
0.0438224
0.225214
0.0286566
0.0421061
0.01161
0.0662042
0.0531837
0.0547104
0.24249
0.0237834
0.344561
0.00596555
0.0712184
0.162134
0.162688
0.0555446
0.0584345
0.217816
0.057583
0.162021
0.162614
0.584684
0.00803843
0.00525542
0.160104
0.198737
0.165196
0.0617567
0.164007
0.163323
0.083173
0.20339
0.163467
0.0421106
0.234354
0.164554
0.227469
0.164814
0.0323186
0.501212
0.0671831
0.149023
0.059707
0.103427
0.283074
0.429048
0.125912
0.277892
0.135296
0.12895
0.452865
0.157932
0.547401
0.360916
0.0743882
0.0101171
0.354747
0.0442878
0.40267
0.160115
0.181861
0.158351
0.157352
-0.0207175
0.343034
0.15848
0.229739
0.163967
0.162527
0.163364
0.164168
0.180023
0.162582
0.252123
0.162791
0.160395
0.305318
0.335846
0.107287
0.418918
0.40975
0.416517
0.160694
0.217163
0.317794
0.468912
0.158238
-0.0164191
0.329357
0.183023
0.252933
0.164191
0.481853
0.16191
0.159629
0.266189
0.160334
0.564862
0.0323619
0.572993
0.361903
0.302869
0.271993
0.24906
0.566788
0.105263
0.508277
0.579444
0.305088
0.192036
0.160268
0.244645
0.297489
0.254782
0.301939
0.158616
0.162873
0.514885
0.365232
0.162319
-0.0107444
0.0415397
0.162783
0.294558
0.163732
0.163829
0.16405
0.405423
0.358382
0.465652
0.336026
0.350946
0.337501
0.163385
0.554236
0.485895
0.0165733
0.556138
0.558399
0.293933
0.343001
0.421896
0.323659
0.371997
0.325331
0.383907
0.375579
0.166876
0.38793
0.023887
0.42791
0.167767
0.0787394
0.386694
0.378227
0.16666
0.414096
0.40855
0.364937
0.465679
0.0725816
0.0407103
0.0701204
0.362198
0.182458
0.380705
0.529194
0.167325
0.149488
0.413305
0.424838
0.454122
-0.00173793
0.181358
0.420438
0.181079
0.117407
0.396101
-0.0237482
0.411382
0.539795
0.183686
0.433122
0.412868
0.180371
0.158911
0.474437
0.492381
0.49778
0.526511
0.463736
0.457468
0.497359
0.479124
0.146443
0.468393
0.193279
0.145675
0.47563
0.193711
0.51986
0.00978864
0.00451453
-0.0190881
0.0974801
0.164398
0.410407
0.544672
-0.015002
0.512216
0.230341
0.187738
0.54446
0.259227
0.194165
0.0306392
0.194849
0.170188
0.2992
0.168578
0.208145
0.0300784
0.175173
0.122623
0.314714
0.0938761
-0.0187804
-0.0184871
0.572087
0.0733866
0.457847
0.134811
0.0353942
0.168903
0.109398
0.488575
0.0792744
0.169198
0.121995
0.357949
0.116089
0.168294
0.362083
0.449393
0.43221
0.488395
0.351947
-0.0143068
0.447984
0.475307
0.558607
0.394351
0.196569
0.415169
0.196286
0.195357
0.089309
0.197591
0.121952
0.0576576
0.390538
0.196306
0.127482
0.0676759
4.42678e-06
0.196998
0.625098
0.407362
0.197394
-0.0214937
0.194503
0.506388
0.384256
0.233725
0.170294
0.243027
0.203972
0.207698
0.563269
0.411283
0.471251
0.427813
0.171757
0.137697
0.417371
0.296641
0.362321
0.361443
0.171218
0.250143
0.171091
0.314965
0.170803
0.273143
0.218079
0.260732
0.175331
0.315106
0.245718
0.257006
-0.0143908
0.431368
0.357722
0.173733
0.312615
0.166354
0.164575
0.182566
0.171908
0.218265
0.102776
0.396423
0.533274
0.0565492
0.534856
-0.0220753
0.12289
-0.0224577
0.171672
0.321562
0.180759
0.23481
0.345328
0.186455
0.171734
0.540131
0.305644
0.173031
0.173352
0.278185
0.559084
0.559776
0.242417
0.453899
0.169696
0.237683
0.35003
-0.0232839
0.357841
0.544955
-0.0110723
0.461262
0.111569
0.0936187
0.104669
0.0795408
0.172168
0.17192
0.0721056
0.17182
0.175365
0.385273
0.33678
0.111281
0.346613
0.153441
-0.000172499
0.366041
0.17542
0.0346937
0.113671
0.0387137
0.127277
0.149756
0.132697
0.236748
0.313448
0.119802
0.0117939
0.173255
0.359022
0.393643
0.172367
0.392699
0.174771
0.463199
-0.0104351
0.0059322
0.066548
0.173309
0.0892907
0.175752
0.0915524
0.0749229
0.17298
0.174488
0.0560313
0.448847
0.369481
0.366924
0.367384
0.174158
0.179783
0.177613
0.177873
0.267281
0.275172
0.281637
0.179997
0.177689
0.169447
0.285353
0.181993
0.179272
0.362706
0.491666
0.357839
0.332961
-0.0206744
-0.0153236
-0.023041
0.197475
0.201057
0.310258
0.200338
0.483499
0.00465681
0.442367
0.62189
0.499913
0.414377
0.357822
0.361571
0.370315
0.491198
0.17766
0.474985
0.173391
0.194373
0.0164799
0.196099
0.195332
0.615246
0.197466
0.18533
0.340605
0.527455
0.44475
-0.0141597
0.186622
0.18373
0.284513
0.0393043
0.292999
0.185615
0.434739
0.184056
0.255
0.370971
0.338507
0.154504
0.251752
0.215817
0.43475
0.211232
0.450318
0.139314
0.459323
0.308376
0.35978
0.219475
0.268634
0.450202
0.179179
0.222581
0.295061
0.208877
0.192459
0.231039
0.0428762
0.174387
0.00808432
0.100627
0.293589
0.0475539
0.0608535
0.335031
0.152029
0.181227
0.0283211
0.026046
0.0408792
0.146683
0.179569
0.433797
0.602477
-0.0198549
0.171436
-0.00588536
0.162316
0.0261627
0.0132328
0.229828
0.179963
0.070383
0.0450041
0.0220116
0.254201
0.258265