/*--------------------------------*- C++ -*----------------------------------*\
| =========                 |                                                 |
| \\      /  F ield         | OpenFOAM: The Open Source CFD Toolbox           |
|  \\    /   O peration     | Version:  2112                                  |
|   \\  /    A nd           | Website:  www.openfoam.com                      |
|    \\/     M anipulation  |                                                 |
\*---------------------------------------------------------------------------*/
FoamFile
{
    version     2.0;
    format      ascii;
    arch        "LSB;label=32;scalar=64";
    class       volScalarField;
    location    "870";
    object      p_rgh;
}
// * * * * * * * * * * * * * * * * * * * * * * * * * * * * * * * * * * * * * //

dimensions      [0 2 -2 0 0 0 0];

internalField   nonuniform List<scalar> 
160405
(
0.632792
0.631948
0.630439
0.620167
0.619098
0.625625
0.616053
0.623975
0.626237
0.620953
0.626629
0.625544
0.619908
0.619023
0.632864
0.632371
0.632865
0.6263
0.630074
0.618698
0.631894
0.612669
0.624609
0.628384
0.623747
0.620036
0.619712
0.62546
0.618898
0.632591
0.612699
0.622706
0.631904
0.618098
0.628212
0.623129
0.62431
0.619367
0.622648
0.618354
0.629079
0.621588
0.622196
0.62818
0.627132
0.623165
0.629635
0.632862
0.627333
0.62005
0.629063
0.620307
0.624377
0.624816
0.630866
0.62449
0.619633
0.632019
0.614912
0.628817
0.628293
0.614849
0.620897
0.63179
0.613722
0.628522
0.632864
0.627117
0.613329
0.632858
0.630221
0.626671
0.621115
0.628753
0.621937
0.622861
0.630271
0.614306
0.632864
0.631669
0.630125
0.620782
0.62992
0.63188
0.628841
0.632859
0.617065
0.632078
0.627709
0.619346
0.630342
0.615806
0.621409
0.623125
0.627617
0.613449
0.612357
0.614247
0.631627
0.617499
0.628138
0.627179
0.632839
0.63041
0.616464
0.62299
0.63283
0.613819
0.62467
0.618547
0.615399
0.616012
0.621117
0.614557
0.62024
0.630672
0.61494
0.620915
0.621955
0.614163
0.626631
0.616466
0.632849
0.616359
0.616198
0.621538
0.632514
0.614101
0.6209
0.632863
0.628102
0.626788
0.632656
0.625229
0.632838
0.614977
0.618743
0.626338
0.622001
0.620808
0.628445
0.629041
0.622886
0.625211
0.627063
0.62775
0.620705
0.624308
0.621883
0.629301
0.626421
0.624802
0.623994
0.623303
0.624706
0.624771
0.63017
0.624772
0.624935
0.621195
0.622606
0.630243
0.623951
0.62114
0.616278
0.621133
0.621327
0.624117
0.628714
0.619288
0.626251
0.62473
0.629991
0.632748
0.632515
0.625451
0.628595
0.632649
0.628941
0.620034
0.624912
0.622419
0.63277
0.61538
0.623363
0.614022
0.627727
0.62325
0.622015
0.613952
0.623202
0.619786
0.632795
0.623416
0.63058
0.619806
0.620772
0.632836
0.619092
0.632807
0.63264
0.617898
0.632829
0.63032
0.619881
0.620667
0.629965
0.629553
0.627746
0.625163
0.620729
0.632789
0.625808
0.629121
0.620768
0.632862
0.632827
0.632622
0.632841
0.632857
0.612818
0.619171
0.632407
0.617125
0.63081
0.623882
0.618642
0.630644
0.614712
0.624804
0.624425
0.632788
0.625318
0.626207
0.625251
0.628808
0.630129
0.624538
0.628195
0.625748
0.625435
0.622036
0.632779
0.626494
0.632832
0.630093
0.622001
0.632737
0.631419
0.628793
0.628249
0.617109
0.618631
0.620447
0.619474
0.616096
0.632441
0.619998
0.619422
0.621436
0.627815
0.624528
0.622669
0.617536
0.632868
0.628089
0.619461
0.624968
0.630482
0.61446
0.617101
0.617479
0.616345
0.627958
0.626664
0.619433
0.618665
0.617479
0.617669
0.627191
0.627824
0.622391
0.622005
0.625516
0.629488
0.627807
0.631263
0.625703
0.62647
0.632016
0.624405
0.614576
0.630917
0.620107
0.61304
0.613144
0.630657
0.626395
0.62202
0.630605
0.623934
0.632859
0.630183
0.624216
0.616311
0.63103
0.616552
0.618048
0.632692
0.630014
0.629851
0.615131
0.63011
0.620237
0.611365
0.617912
0.631183
0.630841
0.630084
0.631918
0.615247
0.630292
0.630108
0.632142
0.617853
0.617509
0.626257
0.61944
0.628466
0.629341
0.621127
0.628247
0.628991
0.623758
0.631574
0.62822
0.632778
0.618121
0.630809
0.62363
0.614893
0.621812
0.619672
0.630316
0.632182
0.623934
0.623084
0.630577
0.621622
0.624151
0.621781
0.620705
0.627488
0.628122
0.632864
0.632762
0.626028
0.619705
0.632501
0.628365
0.617902
0.626054
0.620979
0.629668
0.621841
0.619805
0.626284
0.628566
0.623387
0.625769
0.619113
0.632767
0.622517
0.632377
0.621317
0.620528
0.632687
0.613825
0.62487
0.618736
0.620432
0.627804
0.613471
0.617962
0.632219
0.630825
0.622132
0.630557
0.62093
0.61288
0.616686
0.622796
0.621922
0.618412
0.618066
0.623583
0.615866
0.627282
0.630497
0.630906
0.632851
0.626203
0.617492
0.614233
0.620418
0.613511
0.616959
0.613879
0.632857
0.618867
0.626862
0.629048
0.63284
0.630318
0.631027
0.629571
0.626847
0.631663
0.61639
0.622369
0.625781
0.615622
0.632865
0.632863
0.630046
0.61619
0.614839
0.618403
0.627416
0.617414
0.616018
0.616236
0.615329
0.625392
0.620172
0.6162
0.616345
0.632771
0.616776
0.629281
0.631068
0.623163
0.630539
0.630358
0.628559
0.632864
0.630702
0.621519
0.619131
0.622064
0.617677
0.620367
0.617052
0.617359
0.618558
0.632231
0.612328
0.615265
0.63269
0.625043
0.61928
0.613795
0.614611
0.617194
0.632854
0.618633
0.62941
0.612965
0.613639
0.63141
0.619237
0.631582
0.622209
0.622702
0.613684
0.614379
0.621019
0.630684
0.623031
0.620782
0.620907
0.615058
0.61862
0.622458
0.623203
0.631324
0.625929
0.627195
0.613445
0.620052
0.631194
0.619241
0.623082
0.631414
0.624243
0.622744
0.627028
0.629357
0.623886
0.627722
0.627178
0.632863
0.629547
0.625092
0.631622
0.612833
0.619529
0.617938
0.629682
0.632809
0.630323
0.626679
0.628051
0.625105
0.61978
0.621977
0.618612
0.62641
0.620235
0.61664
0.632832
0.624817
0.61611
0.621946
0.616484
0.632682
0.63275
0.621204
0.625541
0.616917
0.632867
0.629389
0.619442
0.620757
0.61225
0.63266
0.616234
0.616464
0.617123
0.617252
0.631745
0.632525
0.621844
0.632296
0.622462
0.61833
0.632862
0.632867
0.624802
0.624708
0.614962
0.62062
0.615582
0.616076
0.619065
0.62217
0.632803
0.617861
0.614299
0.621522
0.618575
0.630914
0.625778
0.632811
0.61872
0.623484
0.62866
0.631819
0.632391
0.630447
0.630833
0.615564
0.632507
0.615787
0.614601
0.61404
0.627803
0.630593
0.63259
0.631011
0.623119
0.619006
0.626689
0.627942
0.619945
0.612354
0.624558
0.631324
0.632832
0.630165
0.629413
0.618788
0.631537
0.632086
0.624678
0.624576
0.632683
0.622398
0.631923
0.624346
0.622784
0.616828
0.632854
0.615465
0.622648
0.632765
0.617024
0.629738
0.63267
0.614599
0.623488
0.630548
0.617437
0.616833
0.630517
0.631616
0.632692
0.61982
0.622304
0.622122
0.628603
0.618064
0.632862
0.620745
0.627338
0.631888
0.631837
0.615441
0.620345
0.617796
0.617789
0.630074
0.617106
0.631185
0.614356
0.631548
0.615683
0.631172
0.613595
0.632287
0.624815
0.618482
0.624067
0.611878
0.613557
0.61449
0.63041
0.621648
0.612316
0.631205
0.63195
0.631344
0.61623
0.617087
0.628321
0.611452
0.63104
0.625796
0.631779
0.621876
0.615423
0.630325
0.630699
0.624176
0.632602
0.613853
0.61926
0.629435
0.629546
0.612892
0.632147
0.611934
0.618255
0.620012
0.616461
0.625964
0.627133
0.629924
0.617246
0.630554
0.617817
0.614261
0.618075
0.621762
0.618074
0.629115
0.616407
0.615563
0.616846
0.624072
0.628444
0.623883
0.631654
0.632836
0.628337
0.617982
0.617188
0.61608
0.626244
0.629622
0.6236
0.631778
0.617396
0.626703
0.623436
0.613714
0.628396
0.630811
0.624593
0.627968
0.621951
0.623501
0.622468
0.616452
0.616756
0.631303
0.624045
0.619145
0.623692
0.632801
0.620636
0.63214
0.630135
0.626158
0.619624
0.619735
0.625721
0.622078
0.620476
0.620327
0.631644
0.63167
0.625713
0.620814
0.632863
0.619962
0.618567
0.632865
0.623225
0.629094
0.632755
0.632856
0.632848
0.626226
0.628025
0.628233
0.622027
0.632874
0.623332
0.63011
0.632779
0.619589
0.62209
0.632645
0.620013
0.620225
0.632774
0.63193
0.618859
0.626317
0.625121
0.624377
0.624683
0.618963
0.626014
0.62446
0.623614
0.626171
0.632701
0.625635
0.627136
0.620372
0.6223
0.627415
0.629469
0.617953
0.632815
0.626568
0.626552
0.617108
0.62184
0.618919
0.628149
0.624424
0.624513
0.619642
0.624745
0.627829
0.61856
0.626961
0.624352
0.618162
0.630716
0.618739
0.617109
0.628713
0.628759
0.626554
0.62791
0.632824
0.627418
0.632806
0.631854
0.613841
0.623249
0.627732
0.614049
0.62974
0.617494
0.614952
0.630799
0.62285
0.615417
0.629685
0.626329
0.63029
0.615442
0.626373
0.625162
0.615168
0.630181
0.632816
0.614842
0.630059
0.615321
0.632686
0.613363
0.631262
0.626253
0.626868
0.630157
0.628809
0.63285
0.631236
0.632836
0.63285
0.624578
0.631113
0.629087
0.616622
0.614877
0.612427
0.630049
0.630394
0.625852
0.627907
0.613354
0.631182
0.630922
0.630631
0.632681
0.613083
0.621968
0.613443
0.612482
0.612134
0.631902
0.625914
0.616683
0.632858
0.623704
0.616246
0.631923
0.630859
0.613714
0.625459
0.629928
0.632127
0.631932
0.61563
0.615141
0.613047
0.62277
0.631495
0.615481
0.615998
0.627185
0.620593
0.612821
0.625571
0.632575
0.62406
0.621631
0.626152
0.618635
0.624718
0.632867
0.626635
0.619039
0.616474
0.627507
0.617018
0.617774
0.626657
0.620322
0.623365
0.621496
0.632805
0.617533
0.627906
0.621555
0.623812
0.624866
0.620926
0.626587
0.621104
0.615924
0.620498
0.612144
0.620845
0.615543
0.63234
0.621804
0.626661
0.622225
0.621845
0.615869
0.616861
0.622635
0.617293
0.617463
0.622089
0.616706
0.61516
0.614503
0.621645
0.627836
0.63243
0.626985
0.625204
0.628231
0.623273
0.618229
0.625869
0.61738
0.622558
0.626612
0.619519
0.625966
0.629975
0.632528
0.632066
0.620005
0.623978
0.623589
0.618644
0.620275
0.632064
0.625545
0.620229
0.632452
0.624479
0.624169
0.620679
0.629036
0.623465
0.629289
0.622282
0.619592
0.620346
0.615703
0.618699
0.625574
0.618597
0.632581
0.632148
0.61582
0.614166
0.616174
0.617246
0.619351
0.619306
0.629389
0.632725
0.62849
0.617736
0.626193
0.619575
0.623272
0.629923
0.625781
0.614774
0.619851
0.626856
0.614415
0.626467
0.630064
0.626657
0.622939
0.632414
0.620354
0.631668
0.624913
0.62327
0.621072
0.629276
0.625868
0.626858
0.620583
0.632854
0.629333
0.614456
0.615205
0.621276
0.631091
0.630369
0.614662
0.625869
0.61433
0.623686
0.632751
0.615108
0.614473
0.619467
0.622313
0.618595
0.613972
0.629422
0.631918
0.614205
0.627282
0.627881
0.624567
0.631853
0.632862
0.616856
0.620741
0.61576
0.625647
0.632789
0.628014
0.629805
0.627269
0.630989
0.627287
0.621989
0.613905
0.622528
0.61729
0.626478
0.62596
0.626643
0.630322
0.620507
0.626811
0.613827
0.617331
0.632198
0.63059
0.630997
0.611904
0.631029
0.630635
0.625217
0.618633
0.632717
0.613942
0.614128
0.629197
0.628706
0.629088
0.61247
0.631153
0.628818
0.618098
0.612423
0.623699
0.628549
0.619889
0.627653
0.627984
0.626463
0.617906
0.627361
0.631506
0.61854
0.632856
0.631984
0.632556
0.624354
0.628268
0.612221
0.618494
0.617961
0.618718
0.628975
0.63254
0.618132
0.619941
0.6328
0.632727
0.612411
0.626092
0.625165
0.630188
0.632868
0.632796
0.626838
0.6173
0.611436
0.618371
0.617216
0.620143
0.618237
0.631519
0.62856
0.630052
0.623076
0.617915
0.615969
0.631642
0.632787
0.617444
0.618982
0.624691
0.612835
0.632837
0.629232
0.625167
0.627494
0.61338
0.619352
0.612584
0.612179
0.612803
0.622519
0.612508
0.616613
0.620695
0.619085
0.622564
0.612849
0.613353
0.620801
0.615148
0.615445
0.619255
0.624272
0.616123
0.632839
0.620102
0.619405
0.622389
0.616628
0.627239
0.620799
0.622541
0.622848
0.620214
0.623298
0.623228
0.620183
0.621488
0.619428
0.618342
0.631755
0.619045
0.614761
0.631703
0.613038
0.632609
0.611866
0.613462
0.619179
0.61285
0.632864
0.62042
0.62714
0.628786
0.631802
0.612812
0.63252
0.619745
0.616136
0.632109
0.629135
0.628532
0.632868
0.625024
0.628845
0.620509
0.616628
0.618061
0.613795
0.628933
0.628472
0.615161
0.62864
0.616121
0.627369
0.624001
0.616928
0.617858
0.612269
0.611924
0.618923
0.621261
0.6257
0.612398
0.617798
0.626689
0.612134
0.626348
0.612521
0.612334
0.613987
0.621689
0.618107
0.620392
0.625753
0.631204
0.616486
0.61794
0.625926
0.61807
0.617447
0.615455
0.628202
0.617923
0.620197
0.632244
0.631958
0.620653
0.631958
0.632708
0.632505
0.622994
0.632864
0.627933
0.621474
0.621399
0.630655
0.62997
0.620389
0.628296
0.62139
0.626825
0.632697
0.624599
0.632768
0.623946
0.622543
0.623009
0.628455
0.626922
0.626259
0.620887
0.632463
0.630932
0.620235
0.631943
0.630823
0.632516
0.628781
0.621508
0.632588
0.629901
0.619747
0.622324
0.632716
0.62704
0.615855
0.631527
0.620967
0.61815
0.628723
0.622735
0.626577
0.63272
0.619547
0.625877
0.62807
0.63259
0.627503
0.628694
0.619037
0.629561
0.621034
0.629324
0.627297
0.632844
0.616589
0.62231
0.623876
0.625888
0.631744
0.625102
0.627807
0.62573
0.631271
0.629628
0.631057
0.631988
0.628278
0.631574
0.615644
0.62739
0.628479
0.628454
0.6272
0.624636
0.623198
0.630002
0.620693
0.632691
0.629453
0.627607
0.626571
0.625252
0.632717
0.628172
0.630949
0.629015
0.630526
0.627906
0.632341
0.626285
0.624804
0.630866
0.624589
0.632373
0.628089
0.624465
0.632645
0.632746
0.627286
0.631682
0.632548
0.630442
0.625435
0.632723
0.629559
0.628054
0.629061
0.627085
0.631261
0.630187
0.617796
0.620871
0.630489
0.616394
0.618393
0.632737
0.629887
0.63179
0.618634
0.621158
0.629039
0.631569
0.617968
0.630907
0.631933
0.61766
0.628451
0.631988
0.627908
0.619056
0.624334
0.617586
0.617975
0.63284
0.631865
0.632858
0.632858
0.630272
0.63034
0.632014
0.631644
0.628306
0.632861
0.63184
0.614266
0.632588
0.631868
0.632077
0.614775
0.631934
0.631848
0.613654
0.631228
0.613864
0.632626
0.617519
0.62732
0.620337
0.629321
0.628568
0.614613
0.631666
0.620875
0.61331
0.629743
0.626572
0.631429
0.612585
0.630748
0.62903
0.627642
0.628641
0.63115
0.632586
0.631906
0.626909
0.61498
0.613465
0.630588
0.625184
0.617339
0.616531
0.625094
0.629922
0.629964
0.621093
0.630205
0.630501
0.632623
0.632573
0.622353
0.621318
0.618511
0.625142
0.622877
0.627757
0.632678
0.61909
0.626455
0.622496
0.632132
0.618542
0.628975
0.62892
0.632663
0.622846
0.624114
0.617448
0.617888
0.625724
0.618595
0.61929
0.629524
0.624448
0.628157
0.628135
0.632734
0.620114
0.617723
0.624444
0.632666
0.627677
0.61512
0.63049
0.615876
0.625047
0.626694
0.632531
0.630741
0.627668
0.621852
0.62353
0.62085
0.616484
0.630601
0.62478
0.622003
0.622532
0.616568
0.621726
0.618621
0.626485
0.630328
0.62458
0.615142
0.632863
0.615232
0.628301
0.62694
0.629211
0.632673
0.632431
0.624023
0.63218
0.622421
0.632844
0.622612
0.632864
0.631695
0.629336
0.622092
0.628125
0.632741
0.630978
0.620039
0.624903
0.615237
0.632608
0.624275
0.631876
0.626554
0.620426
0.630046
0.620154
0.632818
0.632196
0.632653
0.615289
0.632433
0.617877
0.627871
0.630178
0.632847
0.619585
0.630292
0.628173
0.612693
0.628747
0.617957
0.615682
0.632289
0.632551
0.619412
0.618057
0.631808
0.614616
0.632598
0.62727
0.631406
0.621113
0.62607
0.618318
0.630269
0.627834
0.625927
0.626013
0.632863
0.625155
0.620521
0.621438
0.621225
0.624497
0.632257
0.630126
0.624105
0.625232
0.619613
0.623113
0.626841
0.632058
0.631886
0.630173
0.618033
0.63287
0.628408
0.628724
0.6322
0.630146
0.619606
0.630184
0.632769
0.632306
0.62434
0.632203
0.613274
0.62016
0.622126
0.624462
0.616944
0.628515
0.626958
0.617447
0.628424
0.622945
0.624148
0.62506
0.622783
0.622796
0.631997
0.63206
0.631975
0.629621
0.632063
0.63242
0.627334
0.628222
0.631494
0.631045
0.625375
0.631272
0.631416
0.630381
0.631753
0.631453
0.626421
0.628389
0.625198
0.631734
0.629341
0.627093
0.632861
0.621708
0.630123
0.629744
0.627245
0.632699
0.632768
0.629634
0.631976
0.632551
0.622462
0.61545
0.632604
0.632858
0.632786
0.627004
0.620019
0.623128
0.628198
0.620889
0.629292
0.632702
0.623257
0.628397
0.630943
0.632577
0.621753
0.612296
0.61521
0.62619
0.611375
0.629064
0.621196
0.627839
0.63286
0.612858
0.629043
0.632852
0.62523
0.623768
0.628397
0.617864
0.613261
0.631824
0.632657
0.62858
0.624616
0.632346
0.632295
0.622285
0.632551
0.615768
0.624928
0.628214
0.62084
0.617607
0.632511
0.632373
0.62792
0.620586
0.632855
0.63281
0.626119
0.621314
0.632603
0.632657
0.62342
0.632848
0.613589
0.625058
0.619293
0.613912
0.621716
0.628232
0.615096
0.618603
0.632204
0.621952
0.622822
0.631604
0.62459
0.61759
0.632505
0.62536
0.620451
0.618417
0.615068
0.619678
0.629791
0.632105
0.631022
0.629973
0.620167
0.632265
0.632864
0.620093
0.61928
0.622669
0.62212
0.623391
0.631961
0.620505
0.62878
0.630695
0.619107
0.619242
0.630168
0.626175
0.618253
0.618518
0.625728
0.632641
0.626559
0.632814
0.627439
0.63038
0.632809
0.622854
0.631652
0.623566
0.629
0.621097
0.632435
0.61908
0.632263
0.619671
0.625232
0.632045
0.627163
0.627309
0.632313
0.626
0.625683
0.631004
0.625129
0.623788
0.621662
0.631155
0.631571
0.631843
0.632816
0.619716
0.623879
0.632851
0.632806
0.631386
0.626072
0.632861
0.632869
0.631339
0.624359
0.621167
0.631486
0.622781
0.632858
0.629614
0.62909
0.63286
0.632819
0.623602
0.622823
0.63286
0.624882
0.622974
0.627537
0.632845
0.629441
0.620154
0.629385
0.625406
0.628417
0.627974
0.620074
0.631571
0.62577
0.622147
0.628496
0.624179
0.632809
0.620841
0.632866
0.628233
0.627945
0.623042
0.628196
0.624331
0.630185
0.623949
0.625181
0.627284
0.626579
0.632812
0.632843
0.626187
0.629558
0.630129
0.624504
0.632379
0.620307
0.630793
0.632281
0.627926
0.627019
0.627276
0.629993
0.628715
0.631556
0.626045
0.626463
0.619898
0.626912
0.624794
0.632766
0.632863
0.632867
0.632273
0.632178
0.626155
0.628537
0.626566
0.63194
0.632661
0.628231
0.629845
0.628218
0.627952
0.628564
0.632707
0.630577
0.612464
0.628299
0.632176
0.632237
0.630413
0.630325
0.630262
0.630882
0.631631
0.624804
0.63087
0.62929
0.631542
0.63197
0.631798
0.632252
0.628497
0.628948
0.625999
0.63287
0.613484
0.629252
0.619996
0.614038
0.632196
0.629895
0.619804
0.628225
0.616514
0.620482
0.632866
0.632727
0.631411
0.631782
0.631148
0.63008
0.631884
0.615698
0.632855
0.631035
0.63019
0.630392
0.632811
0.625831
0.614424
0.627044
0.617502
0.619792
0.624866
0.619332
0.632883
0.626028
0.6311
0.617963
0.615766
0.623598
0.6318
0.613821
0.622056
0.615753
0.631808
0.618376
0.612069
0.614675
0.621099
0.631992
0.61824
0.62869
0.613495
0.629737
0.624174
0.624286
0.630612
0.632841
0.62774
0.623249
0.621155
0.613143
0.630422
0.630715
0.625529
0.630578
0.630882
0.631499
0.62133
0.629101
0.623083
0.624546
0.63284
0.631474
0.630698
0.621848
0.619804
0.631298
0.629897
0.630379
0.632414
0.629963
0.631936
0.62306
0.620924
0.63153
0.632836
0.630033
0.620482
0.623862
0.627749
0.620703
0.631296
0.619394
0.62681
0.618662
0.622238
0.619372
0.619157
0.631329
0.618533
0.626415
0.624055
0.618962
0.622886
0.619149
0.615793
0.63171
0.627397
0.632849
0.627214
0.627941
0.63266
0.622367
0.624855
0.621779
0.631706
0.622218
0.616851
0.625515
0.629668
0.627543
0.624953
0.621179
0.628873
0.621491
0.626493
0.632859
0.626169
0.631731
0.632865
0.625515
0.631507
0.632752
0.630501
0.617413
0.624051
0.626083
0.63007
0.628896
0.622202
0.626916
0.631226
0.631887
0.632492
0.632831
0.623756
0.626645
0.628928
0.632415
0.630992
0.632857
0.630338
0.632605
0.630285
0.624367
0.629981
0.629535
0.632633
0.631566
0.626818
0.629361
0.627041
0.62737
0.612035
0.626936
0.61875
0.628933
0.621623
0.630663
0.632125
0.632835
0.629696
0.630024
0.628128
0.618951
0.631225
0.613969
0.625425
0.632633
0.629617
0.619956
0.62748
0.627102
0.624876
0.627832
0.628873
0.628722
0.622924
0.63203
0.622289
0.6236
0.631847
0.628765
0.630084
0.626996
0.632474
0.620331
0.632836
0.628905
0.624636
0.620176
0.63052
0.632458
0.624164
0.615979
0.620824
0.618943
0.619578
0.621088
0.619756
0.621947
0.627158
0.616121
0.632683
0.623042
0.627344
0.632835
0.627886
0.619262
0.615922
0.618405
0.630198
0.626597
0.618828
0.626288
0.624572
0.630344
0.630341
0.625062
0.631079
0.620208
0.62801
0.619785
0.619984
0.621516
0.622314
0.632791
0.63286
0.626147
0.632856
0.627233
0.631291
0.628627
0.632856
0.625072
0.630317
0.632856
0.632858
0.632688
0.632857
0.628387
0.632509
0.625326
0.629496
0.632861
0.631974
0.627736
0.632859
0.621191
0.629366
0.628372
0.630645
0.625889
0.626348
0.628088
0.628992
0.63286
0.62062
0.632831
0.627922
0.632856
0.624639
0.623729
0.621674
0.631901
0.621255
0.632863
0.621144
0.619145
0.624444
0.632421
0.629651
0.631862
0.622232
0.612236
0.616811
0.620929
0.625337
0.620243
0.616656
0.621768
0.632859
0.622269
0.626607
0.632822
0.617598
0.617461
0.616312
0.622037
0.62222
0.6299
0.628001
0.612904
0.621115
0.619458
0.631166
0.630978
0.632205
0.613071
0.616533
0.61676
0.631268
0.612924
0.629155
0.612715
0.628139
0.620097
0.632544
0.620476
0.6148
0.620333
0.631609
0.6272
0.631593
0.62023
0.630429
0.626567
0.613732
0.625089
0.630963
0.632866
0.629423
0.632301
0.622464
0.632327
0.615181
0.618217
0.631812
0.620227
0.632373
0.613802
0.616069
0.61149
0.630408
0.63157
0.62851
0.622708
0.632423
0.6166
0.631589
0.632608
0.617566
0.612245
0.632595
0.631629
0.631538
0.630682
0.63088
0.63287
0.623482
0.628613
0.631612
0.624939
0.632865
0.632038
0.630405
0.619231
0.632594
0.623414
0.621985
0.619811
0.632865
0.632584
0.627073
0.628686
0.619063
0.632457
0.617178
0.630929
0.63287
0.617018
0.62812
0.620534
0.626071
0.622268
0.618018
0.63264
0.620187
0.629114
0.632581
0.625857
0.623723
0.628048
0.619947
0.632693
0.632868
0.632868
0.632869
0.632866
0.63097
0.619379
0.632866
0.619835
0.621549
0.632462
0.632501
0.63234
0.623802
0.620293
0.63249
0.623143
0.627057
0.626653
0.632866
0.630856
0.622035
0.632429
0.632549
0.632452
0.622176
0.631479
0.630503
0.632725
0.621949
0.61365
0.632866
0.62495
0.627897
0.632434
0.626204
0.621411
0.632213
0.632525
0.632466
0.63276
0.625047
0.628921
0.632763
0.618393
0.627029
0.632762
0.624263
0.624525
0.632747
0.622773
0.632766
0.632762
0.63271
0.625568
0.632788
0.618278
0.616503
0.628875
0.63275
0.627879
0.630917
0.62992
0.625526
0.62598
0.624443
0.619453
0.622114
0.632751
0.624117
0.619792
0.632731
0.632772
0.620664
0.629602
0.631384
0.620431
0.62697
0.630736
0.620604
0.631425
0.627626
0.626459
0.624872
0.631453
0.630967
0.618975
0.628802
0.621806
0.632755
0.62222
0.63169
0.632857
0.631372
0.632855
0.630839
0.627287
0.629807
0.625454
0.622351
0.622105
0.629569
0.627524
0.632116
0.626515
0.618973
0.632858
0.628424
0.630661
0.629224
0.631824
0.631673
0.632863
0.628862
0.613592
0.632865
0.614433
0.630408
0.62857
0.615058
0.629186
0.628036
0.631684
0.625426
0.63002
0.622771
0.629915
0.622406
0.632859
0.630091
0.624956
0.632679
0.623249
0.631926
0.632386
0.614709
0.628841
0.632255
0.632864
0.627257
0.628241
0.628424
0.621203
0.616993
0.622526
0.632193
0.631494
0.618041
0.617691
0.632321
0.617419
0.61829
0.613753
0.632449
0.627611
0.621806
0.622893
0.628095
0.615708
0.632805
0.618002
0.626064
0.62329
0.620161
0.632838
0.614482
0.63068
0.615353
0.615427
0.618014
0.619029
0.632845
0.616419
0.622995
0.624417
0.614497
0.630496
0.62698
0.614324
0.625337
0.629163
0.62759
0.625006
0.632828
0.614302
0.629846
0.627172
0.629794
0.628013
0.629534
0.624915
0.625996
0.62942
0.623209
0.626477
0.618215
0.632862
0.628672
0.612215
0.6316
0.630546
0.632795
0.625552
0.625435
0.628265
0.632864
0.632867
0.619562
0.626236
0.632685
0.632867
0.631767
0.62567
0.627659
0.627815
0.632496
0.627645
0.627617
0.631677
0.627627
0.632796
0.61495
0.632603
0.615015
0.631753
0.628006
0.627209
0.617116
0.623119
0.616967
0.623562
0.617153
0.616995
0.619471
0.617191
0.630672
0.632595
0.622206
0.615214
0.617059
0.625424
0.629096
0.623372
0.632623
0.623044
0.624099
0.632618
0.629921
0.626967
0.632656
0.629026
0.62877
0.632859
0.629377
0.628512
0.630392
0.62907
0.624583
0.61775
0.620162
0.62748
0.632627
0.625589
0.621844
0.611431
0.632779
0.623439
0.616366
0.626713
0.626486
0.617604
0.622761
0.632752
0.632808
0.632356
0.618241
0.62488
0.632592
0.6328
0.628403
0.630497
0.626662
0.613842
0.625535
0.626082
0.626933
0.619247
0.623736
0.623743
0.625798
0.619524
0.619664
0.617973
0.618096
0.629864
0.630692
0.630722
0.617245
0.622019
0.611188
0.628172
0.631121
0.629438
0.629079
0.616424
0.622841
0.631202
0.631085
0.620666
0.62672
0.626725
0.620265
0.630027
0.620189
0.629849
0.629274
0.620462
0.624317
0.628829
0.617744
0.627262
0.629951
0.617691
0.628545
0.630703
0.619447
0.622904
0.621903
0.630656
0.621967
0.632804
0.622434
0.628643
0.627063
0.632774
0.628081
0.617617
0.632018
0.629328
0.629829
0.628171
0.630995
0.6169
0.631315
0.624313
0.627914
0.628302
0.624074
0.626018
0.625596
0.631233
0.61797
0.621172
0.626062
0.627284
0.630614
0.62764
0.631842
0.619654
0.62854
0.614415
0.612852
0.617908
0.627335
0.611749
0.631654
0.616228
0.619956
0.630495
0.616924
0.630441
0.617266
0.630537
0.631458
0.620566
0.631538
0.630178
0.62294
0.632434
0.629049
0.630987
0.632087
0.629045
0.628383
0.632071
0.623746
0.617875
0.632355
0.615705
0.614909
0.618825
0.626258
0.622151
0.619065
0.632325
0.614165
0.632647
0.621981
0.614207
0.625555
0.625975
0.624454
0.629522
0.632198
0.616676
0.62641
0.625612
0.632862
0.624287
0.612761
0.624069
0.632083
0.623243
0.623562
0.623219
0.621296
0.615215
0.63211
0.622554
0.619855
0.632288
0.618988
0.632189
0.623268
0.614197
0.630722
0.623967
0.618165
0.617563
0.621045
0.632618
0.631943
0.615884
0.632565
0.628084
0.615987
0.62733
0.618018
0.631451
0.632662
0.631091
0.614713
0.63266
0.614572
0.63275
0.621028
0.621163
0.6211
0.622257
0.627646
0.63265
0.618025
0.626992
0.619869
0.620259
0.617373
0.617791
0.626801
0.6176
0.620895
0.616856
0.627958
0.627148
0.6326
0.615938
0.632763
0.632756
0.632769
0.623788
0.621255
0.627596
0.627851
0.627431
0.627364
0.62697
0.623217
0.621704
0.628422
0.62768
0.62497
0.622205
0.622934
0.62121
0.632871
0.629729
0.632868
0.625619
0.622458
0.622774
0.624111
0.632869
0.623331
0.629032
0.632868
0.622634
0.62948
0.622262
0.632332
0.623349
0.620497
0.627997
0.620441
0.62158
0.632847
0.623683
0.622333
0.611825
0.615437
0.620939
0.631239
0.623178
0.623068
0.61715
0.632808
0.63277
0.627732
0.627448
0.624077
0.630745
0.617157
0.632862
0.632828
0.628289
0.632871
0.632867
0.623287
0.626328
0.632774
0.626765
0.62431
0.622877
0.627959
0.63156
0.617111
0.631449
0.629035
0.626411
0.617122
0.630615
0.628313
0.628483
0.619873
0.631626
0.632361
0.632703
0.627151
0.630538
0.629349
0.630355
0.625623
0.630271
0.632804
0.631398
0.631823
0.631675
0.632132
0.627232
0.632836
0.621562
0.628567
0.63278
0.630529
0.631299
0.62483
0.611198
0.627899
0.632857
0.631321
0.626009
0.630224
0.63042
0.631768
0.63069
0.630848
0.628192
0.631748
0.630919
0.630393
0.632854
0.632407
0.631645
0.63266
0.630408
0.63223
0.627419
0.628488
0.630904
0.627727
0.627195
0.625979
0.61994
0.626445
0.632759
0.632447
0.613943
0.629289
0.62478
0.630464
0.629899
0.632721
0.62902
0.619207
0.630994
0.617695
0.632605
0.620083
0.627966
0.616695
0.618943
0.624544
0.632575
0.61616
0.625882
0.625804
0.632861
0.619116
0.632811
0.616738
0.613654
0.623796
0.623656
0.629007
0.623907
0.624065
0.619009
0.624496
0.62492
0.620731
0.62451
0.632802
0.632787
0.62916
0.627261
0.626226
0.631776
0.632837
0.63286
0.624685
0.624947
0.625595
0.625787
0.62808
0.615803
0.624285
0.62154
0.613628
0.632718
0.625522
0.616435
0.627143
0.61459
0.624823
0.632868
0.632745
0.624889
0.613182
0.621877
0.630495
0.626344
0.619316
0.624461
0.624906
0.630608
0.63207
0.632861
0.632752
0.628601
0.632773
0.621782
0.624138
0.632762
0.623675
0.632792
0.632691
0.621736
0.626648
0.623097
0.621972
0.625611
0.620715
0.627983
0.620795
0.624259
0.622575
0.624623
0.619934
0.624876
0.632776
0.626865
0.630272
0.626329
0.617115
0.623104
0.631019
0.62955
0.619371
0.615251
0.632741
0.632855
0.614778
0.632855
0.611888
0.61904
0.614321
0.619929
0.629581
0.629035
0.619441
0.632655
0.617797
0.620425
0.632864
0.626956
0.622683
0.618543
0.628474
0.632861
0.632862
0.625127
0.63261
0.622841
0.627762
0.62587
0.614029
0.625583
0.630097
0.61155
0.629563
0.61565
0.616571
0.617541
0.623
0.622353
0.624134
0.614029
0.624689
0.617851
0.626428
0.632614
0.618836
0.632643
0.632299
0.614231
0.63267
0.620901
0.630854
0.616142
0.622686
0.629893
0.628987
0.628075
0.627358
0.632578
0.620826
0.618399
0.621235
0.623382
0.630138
0.620728
0.625778
0.623351
0.62826
0.6126
0.628461
0.622978
0.622952
0.629493
0.618731
0.627358
0.617813
0.621229
0.620106
0.613576
0.630796
0.63275
0.627496
0.626418
0.622807
0.632346
0.632258
0.632325
0.62361
0.6206
0.629028
0.632324
0.632335
0.628923
0.625187
0.628056
0.629266
0.632681
0.632403
0.632654
0.627375
0.611531
0.614498
0.611416
0.62641
0.628779
0.632628
0.628742
0.627892
0.617455
0.630577
0.632868
0.632836
0.632754
0.632679
0.624173
0.630983
0.629755
0.623718
0.632869
0.617202
0.625365
0.616025
0.62528
0.631412
0.632866
0.625902
0.625959
0.632644
0.631272
0.630103
0.6121
0.624018
0.624567
0.632492
0.619082
0.627762
0.622324
0.63278
0.624353
0.621851
0.624358
0.62512
0.63172
0.624671
0.619771
0.632824
0.628953
0.630856
0.620549
0.630354
0.624603
0.623654
0.624833
0.627742
0.62683
0.622604
0.632575
0.628778
0.622998
0.623542
0.624777
0.630906
0.631834
0.619759
0.622589
0.625952
0.622724
0.61441
0.632628
0.631656
0.624898
0.620584
0.615434
0.625076
0.631604
0.620314
0.62998
0.632863
0.627534
0.631962
0.612429
0.632276
0.613396
0.61877
0.623791
0.620439
0.630783
0.623735
0.629041
0.632377
0.632348
0.626183
0.626538
0.632861
0.632859
0.628375
0.627294
0.624941
0.632862
0.619942
0.627167
0.632207
0.628774
0.615895
0.620513
0.614027
0.629051
0.61525
0.623959
0.62871
0.615693
0.629784
0.629569
0.632862
0.61786
0.632821
0.626038
0.614322
0.621547
0.625924
0.623967
0.614213
0.622342
0.622474
0.627503
0.615634
0.626398
0.618415
0.621215
0.626723
0.632024
0.627539
0.620271
0.624543
0.632801
0.617794
0.617088
0.632816
0.624269
0.628907
0.616453
0.622073
0.626982
0.620982
0.618837
0.627651
0.623153
0.632862
0.628617
0.632808
0.622172
0.62846
0.61687
0.627571
0.616318
0.631403
0.631568
0.618078
0.621074
0.620957
0.622759
0.620317
0.622775
0.626547
0.62475
0.619433
0.619141
0.615606
0.624858
0.62888
0.621978
0.631064
0.630746
0.629537
0.628654
0.623344
0.620233
0.619199
0.625722
0.622601
0.629532
0.626874
0.624217
0.632822
0.625917
0.627976
0.628125
0.624228
0.620099
0.63283
0.624362
0.628336
0.618979
0.626522
0.619234
0.630547
0.630923
0.632794
0.617787
0.630601
0.632151
0.630793
0.630753
0.631114
0.630961
0.626434
0.619277
0.631185
0.630697
0.632392
0.626864
0.628455
0.63242
0.630959
0.629935
0.625114
0.622724
0.631937
0.620548
0.62851
0.632053
0.617787
0.632337
0.628719
0.62939
0.629522
0.628545
0.632243
0.626776
0.62874
0.622984
0.629873
0.616581
0.632207
0.626895
0.632484
0.623902
0.62322
0.626063
0.629853
0.630036
0.626049