/*--------------------------------*- C++ -*----------------------------------*\
| =========                 |                                                 |
| \\      /  F ield         | OpenFOAM: The Open Source CFD Toolbox           |
|  \\    /   O peration     | Version:  2112                                  |
|   \\  /    A nd           | Website:  www.openfoam.com                      |
|    \\/     M anipulation  |                                                 |
\*---------------------------------------------------------------------------*/
FoamFile
{
    version     2.0;
    format      ascii;
    arch        "LSB;label=32;scalar=64";
    class       surfaceScalarField;
    location    "870";
    object      phi;
}
// * * * * * * * * * * * * * * * * * * * * * * * * * * * * * * * * * * * * * //

dimensions      [0 3 -1 0 0 0 0];

oriented        oriented;

internalField   nonuniform List<scalar> 
302162
(
1.02875e-11
-1.02875e-11
3.59303e-11
-7.22238e-11
1.97574e-11
1.65361e-11
4.58108e-13
-4.01803e-12
-5.36837e-13
4.09675e-12
-7.17566e-11
9.62642e-11
-5.44137e-11
2.99061e-11
-2.45127e-11
-7.85509e-11
1.02164e-10
8.99497e-13
-2.57871e-11
-1.81066e-10
1.11596e-10
9.52577e-11
-4.77374e-11
1.20386e-11
3.03063e-11
5.39252e-12
1.05397e-10
-1.7691e-10
1.68888e-10
-9.73744e-11
1.4762e-10
3.42991e-10
-9.26451e-11
-3.97967e-10
-3.21439e-11
1.31342e-10
-5.90682e-12
-9.32916e-11
3.71297e-10
-3.68267e-10
-5.07829e-11
4.7752e-11
4.03766e-10
-2.6848e-10
6.21892e-10
-7.57179e-10
-1.11928e-10
1.072e-10
-7.01578e-11
7.48865e-11
2.36384e-12
-6.75313e-11
1.77746e-12
6.339e-11
2.55177e-10
8.68263e-12
-2.6386e-10
8.63285e-11
8.07424e-11
-9.76016e-11
-6.94693e-11
7.68834e-12
-1.68337e-10
1.60649e-10
-3.58173e-10
2.49711e-10
2.02932e-10
-9.44712e-11
-2.60228e-10
2.54639e-10
-7.98626e-12
1.35747e-11
7.87184e-12
4.83538e-11
1.50986e-12
-5.77355e-11
1.13774e-10
-1.59332e-10
4.55577e-11
-2.92528e-12
-1.47989e-13
3.07327e-12
-6.72497e-11
1.90843e-11
5.95503e-11
-1.13849e-11
4.84137e-13
3.14547e-12
-2.88623e-12
-7.43372e-13
7.90907e-11
3.49077e-11
6.02996e-12
-1.20028e-10
-9.23298e-11
4.73394e-11
9.47073e-11
-4.97168e-11
-1.18185e-10
2.58549e-11
2.7637e-11
-1.26809e-10
-9.32914e-11
1.92463e-10
-1.6238e-11
-2.41571e-11
8.3427e-11
-4.3032e-11
-3.91078e-11
-1.38704e-10
3.41235e-11
1.43688e-10
-1.29645e-15
8.89678e-12
-9.04915e-12
1.53592e-13
-1.35079e-10
1.59705e-10
-2.86961e-11
4.07056e-12
3.49867e-11
-3.1724e-11
1.10511e-10
1.00761e-11
2.69893e-11
-8.0671e-11
4.36057e-11
-2.88644e-12
-1.1561e-13
3.00205e-12
2.53149e-10
-2.42923e-10
-6.93859e-11
5.91604e-11
5.70733e-12
-6.52838e-12
8.21057e-13
7.69599e-11
-4.58585e-11
7.04067e-10
-1.94383e-09
1.23976e-09
-7.388e-11
3.59955e-11
1.59978e-11
2.18868e-11
1.78052e-10
-1.74435e-10
-7.2968e-10
7.26063e-10
-3.57844e-11
-5.31432e-11
2.65552e-10
-1.76625e-10
1.13603e-10
1.3338e-10
-3.44783e-11
-2.12504e-10
1.29155e-10
3.83477e-11
4.57579e-11
-2.1326e-10
-4.38124e-10
-7.3486e-11
-2.8245e-10
7.9406e-10
2.61301e-10
-9.6052e-11
-2.43929e-10
7.86798e-11
9.39226e-12
2.08598e-12
-2.17592e-11
1.0281e-11
-3.08011e-10
2.73291e-10
3.47201e-11
-6.04898e-11
-8.35803e-11
-7.77692e-10
9.21763e-10
-7.02395e-11
-1.35579e-10
1.10995e-10
9.48233e-11
-2.63495e-11
-1.04077e-10
5.89713e-11
7.14556e-11
-1.65153e-10
-2.33025e-11
2.40832e-11
1.64372e-10
4.15078e-11
2.55652e-11
-4.83289e-10
4.16216e-10
-2.74981e-10
-3.7186e-10
5.02892e-10
1.43948e-10
7.29684e-11
-9.14401e-11
-8.16146e-11
1.00086e-10
2.97398e-10
-1.94788e-10
3.7838e-10
-4.8099e-10
-2.78916e-13
-2.8437e-13
1.66441e-11
-1.60808e-11
2.05539e-10
-3.13377e-10
-5.22704e-11
1.60109e-10
1.45641e-11
9.93236e-12
-1.61229e-11
-8.37361e-12
7.13079e-10
-4.83273e-11
-7.82606e-10
1.17854e-10
1.17535e-09
-1.70907e-10
-4.001e-10
-6.04343e-10
1.62988e-11
-2.99184e-11
2.45929e-11
-1.09732e-11
8.35833e-11
2.00859e-11
3.5094e-12
-1.07179e-10
9.81951e-11
-1.30898e-10
1.59752e-10
-1.27048e-10
-1.57121e-11
-2.0409e-12
2.04895e-11
-2.73643e-12
2.29267e-11
-6.21355e-11
2.56205e-11
1.35882e-11
1.2865e-10
1.4534e-10
2.36202e-10
-5.10191e-10
-4.25645e-10
3.18949e-10
-3.31427e-10
-8.67123e-14
-5.35376e-12
5.44047e-12
-5.16162e-11
1.02634e-09
-9.74728e-10
-3.40158e-11
5.2481e-11
3.5702e-11
-5.41672e-11
6.8001e-10
-4.42169e-11
-4.82668e-10
-1.53125e-10
-2.73025e-12
1.04605e-10
-1.88318e-12
-9.99914e-11
-1.27975e-11
1.52607e-11
-1.97898e-12
2.70079e-10
-2.37589e-10
-3.24892e-11
2.93297e-10
-2.22835e-10
-7.65327e-11
6.07084e-12
1.37876e-09
6.26598e-10
-8.89363e-10
-1.116e-09
5.48112e-12
4.47589e-12
-4.41801e-12
-5.539e-12
9.18236e-10
8.92196e-11
-4.81099e-10
-5.26357e-10
-2.67047e-10
7.03145e-11
1.96733e-10
-2.52046e-13
1.1678e-12
-9.89391e-13
7.36356e-14
-3.75235e-11
-7.04651e-11
1.22816e-10
-1.48269e-11
-1.00194e-13
1.01916e-13
-1.722e-15
1.25678e-11
-4.68613e-11
1.15625e-12
3.31372e-11
-9.93712e-11
5.24556e-11
7.64757e-10
-7.17842e-10
-8.91428e-10
6.32698e-10
-2.87521e-10
5.4625e-10
-4.07471e-11
6.33856e-11
-1.45649e-11
-8.0737e-12
-1.93948e-10
1.10488e-11
2.32487e-11
1.5965e-10
2.5489e-11
9.96142e-11
-1.09343e-10
-1.57605e-11
-1.22815e-11
-4.33837e-12
1.17299e-11
4.89003e-12
-3.52741e-10
4.22136e-10
1.02811e-10
-1.72205e-10
-4.48749e-12
4.31658e-12
1.70915e-13
7.67972e-11
-2.22266e-11
4.70215e-11
-1.01592e-10
1.60023e-09
-8.96165e-10
5.47992e-10
-7.73193e-10
2.44103e-09
-2.21583e-09
-3.28927e-12
6.65897e-12
1.36378e-11
-1.70075e-11
-2.31406e-14
4.99092e-12
-4.96778e-12
-1.28665e-12
-2.44144e-11
2.18095e-12
2.35201e-11
-8.5516e-11
7.44048e-11
-1.37669e-10
1.4878e-10
2.39839e-11
-2.55313e-11
7.55047e-11
-7.39573e-11
1.70172e-09
-1.08988e-09
8.54217e-10
-1.46605e-09
2.80554e-11
-2.41889e-13
3.49857e-14
-2.78485e-11
-2.25167e-11
3.60485e-10
-5.2823e-14
-3.37915e-10
4.66306e-10
4.74912e-10
-1.12503e-09
1.83816e-10
7.45779e-11
-8.39648e-12
-6.50286e-11
-1.1528e-12
9.44676e-12
-7.48118e-11
-2.05661e-11
8.59311e-11
1.55895e-11
3.50913e-10
-2.15512e-10
-1.5099e-10
-3.81499e-12
-6.51007e-12
2.38266e-12
7.9424e-12
4.17878e-11
2.31294e-10
-2.73082e-10
-7.72687e-11
7.88127e-11
-1.28379e-11
1.1294e-11
2.85295e-11
-2.20014e-11
-8.1445e-13
-5.71368e-12
-1.49157e-11
3.88197e-11
4.62547e-12
-1.07343e-10
2.08001e-11
8.65425e-11
2.14178e-11
-2.17967e-11
-3.43611e-12
8.3068e-12
7.57855e-12
-1.18322e-11
-4.05316e-12
-5.57455e-11
6.71974e-10
-4.27167e-10
-1.89061e-10
-1.09273e-11
-5.66477e-13
3.75221e-14
1.14562e-11
1.15911e-10
-8.69323e-11
-1.64499e-10
1.35521e-10
-7.14361e-11
1.45046e-10
-8.27535e-11
9.14345e-12
-2.0113e-11
-3.92609e-12
2.4325e-11
-2.85964e-13
8.71554e-12
4.09836e-10
-3.59589e-11
-3.82593e-10
1.76238e-12
-3.1198e-11
2.94357e-11
-2.03574e-10
-2.18835e-10
4.82142e-10
-5.9733e-11
-2.85482e-11
4.13335e-11
2.26081e-12
-1.50461e-11
-2.74481e-11
-3.82832e-11
3.7183e-11
1.01976e-10
-8.46542e-11
-4.8942e-11
3.16198e-11
-4.08015e-11
5.31996e-11
-3.41681e-11
2.17699e-11
1.86244e-12
-1.84146e-11
9.89311e-12
6.65901e-12
-3.69344e-12
1.34242e-13
3.5592e-12
3.77515e-10
-4.47798e-10
-3.48672e-10
4.18955e-10
-6.89702e-10
2.59175e-10
-2.73108e-10
7.03635e-10
4.89281e-10
-6.44409e-10
-6.72281e-11
2.22356e-10
1.60367e-11
-3.4444e-10
3.28403e-10
2.21869e-10
1.01016e-10
-8.71028e-10
5.48142e-10
-3.36829e-11
7.33391e-11
-3.47964e-10
3.08308e-10
-4.46953e-12
6.33569e-13
3.83596e-12
6.73934e-11
-2.70794e-11
1.05684e-11
-5.08825e-11
1.31455e-10
-1.10475e-10
-1.31548e-11
-7.82511e-12
-1.3688e-11
-1.5589e-10
6.57856e-11
1.03793e-10
6.87037e-11
-3.42861e-13
-5.18287e-11
-1.65321e-11
-1.06249e-10
9.47765e-11
2.00697e-11
-8.59678e-12
1.80431e-11
-7.99739e-11
-2.30156e-11
8.49465e-11
-8.11298e-12
-2.49973e-10
5.53145e-10
-2.95059e-10
-3.56214e-10
-7.07894e-11
6.85281e-11
3.58475e-10
4.97995e-11
-5.22065e-10
4.35281e-10
3.69846e-11
6.56991e-10
-6.75555e-10
1.85636e-11
-1.00443e-10
1.04873e-10
-2.42365e-11
1.9807e-11
9.34409e-11
-7.80094e-12
-8.56399e-11
4.16567e-11
-1.08572e-10
5.32271e-11
2.36839e-11
7.22474e-10
-5.2429e-10
-2.21867e-10
-1.8621e-10
-4.78415e-10
4.11557e-10
2.53069e-10
-3.08076e-10
1.56967e-10
1.45536e-10
5.57373e-12
-1.14628e-10
2.99785e-10
6.53519e-11
-2.50509e-10
-3.39191e-10
2.00406e-10
2.41562e-11
2.31426e-10
7.90315e-11
-4.11224e-10
1.00766e-10
2.07246e-10
-2.26474e-10
-2.88848e-10
1.01275e-10
-7.03729e-12
-2.62337e-11
-6.80043e-11
2.84288e-10
-3.33029e-11
-4.37382e-11
3.16194e-10
-3.97885e-10
-3.01536e-11
1.11845e-10
9.13261e-12
-2.5301e-11
7.38613e-12
8.78223e-12
-8.27681e-11
-1.43641e-11
1.91351e-10
-9.42191e-11
-2.7596e-11
2.90236e-11
-3.02237e-11
2.8796e-11
-1.19566e-10
-2.4228e-10
1.05436e-10
2.56411e-10
-8.43456e-11
1.87974e-11
1.17134e-10
-5.15855e-11
-1.59626e-12
2.09815e-12
-4.61887e-12
4.11698e-12
-1.33847e-10
1.06933e-10
-1.21564e-11
3.90705e-11
1.06085e-10
7.44748e-11
-1.77251e-11
-1.62834e-10
4.27339e-13
-8.87692e-13
1.22253e-11
-1.17649e-11
-1.77621e-12
2.49814e-11
-1.08836e-11
-1.23216e-11
2.57337e-11
1.58043e-11
-5.85588e-11
1.70209e-11
-2.73199e-11
-6.59253e-11
-4.46874e-10
5.40119e-10
1.6797e-10
-1.81145e-10
3.2937e-10
-1.51936e-12
9.15781e-13
6.03584e-13
-7.76843e-11
-1.83343e-10
1.61567e-10
9.94602e-11
9.01542e-10
7.50397e-10
-7.24908e-10
-9.2703e-10
-3.65428e-10
5.33398e-10
-8.72224e-11
-4.87867e-11
1.29968e-10
6.04107e-12
-2.89114e-10
3.86152e-11
2.50499e-10
-2.45501e-11
7.73268e-10
2.50827e-10
-9.99546e-10
3.6971e-12
2.24718e-11
-2.43747e-11
-1.79412e-12
-4.3558e-10
9.75017e-11
-3.60226e-11
3.74101e-10
1.38806e-11
-2.40188e-11
-3.08023e-12
1.32184e-11
1.30452e-10
-9.61434e-11
-1.90998e-10
1.5669e-10
-4.71887e-11
1.90326e-12
7.06137e-12
3.82241e-11
6.22117e-11
-3.17503e-11
-8.92884e-11
5.88269e-11
-4.80987e-13
-1.64314e-11
-5.25015e-12
2.21625e-11
7.71076e-10
-4.07152e-11
-7.30361e-10
1.26152e-10
-3.38408e-10
-8.46094e-11
2.96865e-10
-5.84002e-12
-2.10276e-12
4.93361e-12
3.00917e-12
1.31885e-11
1.45185e-11
-2.43722e-11
-3.33477e-12
2.55405e-10
1.05316e-10
-3.35368e-10
-2.53529e-11
1.01455e-10
-5.9902e-11
1.56323e-11
-5.71852e-11
4.26274e-11
3.76891e-11
-2.49266e-11
-5.53899e-11
8.92366e-11
-7.56265e-11
2.41795e-10
4.16199e-10
3.86544e-10
7.17226e-11
-8.74466e-10
-1.96322e-12
-9.85744e-12
-7.93915e-13
1.26146e-11
5.03611e-12
-5.49457e-12
4.58461e-13
-1.6014e-10
4.23817e-10
-2.48088e-10
6.80375e-12
9.88811e-11
-8.83908e-11
-1.72941e-11
-4.27227e-10
4.71457e-10
-5.43836e-11
1.01539e-11
1.7042e-10
-5.42505e-11
-2.43464e-10
1.27295e-10
-8.62788e-13
4.34779e-11
2.85813e-11
-7.11963e-11
-2.86451e-10
2.12738e-11
3.66035e-10
-1.00858e-10
-9.97807e-14
4.78214e-14
-2.2685e-12
2.32046e-12
-1.08389e-10
1.09166e-10
8.15114e-11
-8.22886e-11
-6.80446e-11
7.40141e-11
-2.58839e-11
1.99144e-11
1.78411e-13
-1.448e-12
1.26959e-12
-4.31913e-11
2.71657e-11
8.02946e-12
7.99611e-12
6.41962e-12
3.96581e-12
-5.54787e-12
-4.83756e-12
-3.61698e-11
-1.43011e-10
1.79181e-10
-7.87173e-11
-3.74867e-11
1.72761e-11
9.89279e-11
-2.66972e-11
-4.28466e-11
2.33262e-10
-1.63718e-10
1.00566e-11
-1.65818e-11
-4.01446e-11
4.66697e-11
-3.51978e-12
-1.65175e-13
3.68495e-12
-1.25594e-10
3.60137e-11
7.25974e-11
1.69832e-11
2.29953e-10
2.61463e-12
-2.3393e-10
1.36201e-12
6.14954e-10
-7.22684e-11
-5.32357e-10
-1.03291e-11
1.77706e-11
-6.2226e-12
3.96034e-11
-5.11514e-11
-1.56468e-12
4.1577e-10
-4.12761e-11
-3.72929e-10
-1.23415e-10
-2.88788e-10
4.12203e-10
-5.16631e-12
5.16631e-12
-9.45259e-11
1.82728e-12
5.19092e-11
4.07895e-11
1.18444e-09
-1.8223e-10
-1.00221e-09
3.69759e-11
-2.99694e-11
-6.25902e-11
5.55837e-11
-7.53193e-13
-1.22785e-12
3.80641e-12
-1.82537e-12
-1.78467e-10
2.24684e-10
-4.28028e-10
3.81811e-10
5.25197e-11
1.29961e-11
-1.60684e-11
-4.94475e-11
2.67417e-11
6.54327e-11
-1.37006e-10
4.48311e-11
-1.05502e-11
-4.27782e-12
2.09887e-11
-6.1606e-12
1.82792e-10
2.58462e-10
-4.06819e-10
6.07792e-11
2.46431e-11
-2.63528e-09
2.18729e-09
4.23346e-10
-8.35248e-11
-5.05556e-10
5.89081e-10
2.26886e-11
-1.48327e-10
1.30176e-10
-4.53703e-12
9.05083e-11
-1.45322e-11
-5.95626e-10
5.1965e-10
2.56901e-11
-1.89479e-11
-4.09029e-11
3.41607e-11
9.82724e-13
-6.95881e-13
-8.27151e-13
5.40308e-13
3.46245e-10
6.46386e-11
-8.22128e-11
-3.28671e-10
-7.62954e-10
2.77162e-10
4.59603e-11
4.39831e-10
-9.28455e-11
-2.80038e-10
3.39581e-10
7.39688e-11
4.91286e-10
-3.82463e-10
5.55985e-11
4.87645e-11
-2.92421e-11
-7.5121e-11
-5.97352e-11
2.84838e-10
-8.6807e-11
-1.38296e-10
-4.56328e-13
-2.60898e-11
2.65462e-11
2.6639e-10
2.94475e-11
-3.28297e-10
3.24598e-11
6.1724e-10
-3.67507e-10
3.16637e-10
-5.66369e-10
4.63757e-11
-2.51054e-11
-6.6226e-13
-2.06081e-11
1.83663e-10
-3.63605e-11
-1.05531e-10
-4.1771e-11
5.58468e-10
2.22356e-10
-6.93259e-10
-8.75649e-11
9.42232e-10
-1.07032e-11
-1.10241e-09
1.70879e-10
5.15866e-10
-4.70354e-11
1.83699e-11
-4.872e-10
-8.04612e-11
8.07003e-11
-3.0605e-12
2.82134e-12
1.8897e-11
8.8642e-12
-3.2093e-11
4.33176e-12
1.80245e-13
-6.58937e-12
6.40912e-12
1.32779e-11
-7.52295e-11
-6.7681e-12
6.87197e-11
-7.32626e-12
-2.33597e-13
7.55986e-12
-2.64659e-10
7.03915e-10
-4.39126e-10
-1.29998e-13
-3.55405e-11
-4.65998e-11
-4.82718e-11
1.30412e-10
-5.54858e-11
4.30503e-11
1.6205e-11
-3.76944e-12
6.52361e-11
-7.74675e-11
2.46808e-11
-1.24494e-11
3.00084e-09
2.03484e-11
-2.8048e-09
-2.16389e-10
8.49105e-11
-2.09751e-10
-9.17417e-12
1.34015e-10
6.91398e-11
-5.2733e-11
-3.18561e-12
-1.32212e-11
4.75963e-11
-5.25149e-11
1.24294e-11
-7.51082e-12
-2.8725e-10
3.68356e-10
-4.29154e-10
3.48048e-10
9.11831e-11
4.73965e-12
1.57999e-12
-9.75027e-11
1.06571e-10
-6.29905e-11
8.45897e-13
-4.44267e-11
-8.99102e-11
3.95506e-11
-4.47183e-11
9.50779e-11
2.98465e-12
-3.08443e-12
-5.47225e-12
9.44493e-12
-1.72264e-11
1.32537e-11
-5.02379e-11
-7.95786e-12
8.12913e-13
5.73828e-11
-1.49935e-12
-1.14221e-12
4.10933e-11
-3.99427e-11
-2.64995e-12
-3.47844e-10
-3.23981e-10
-9.74377e-11
7.69262e-10
1.44717e-11
-2.26387e-11
1.67066e-11
-8.53959e-12
4.56508e-11
-8.14609e-11
-2.86294e-11
6.44395e-11
7.51193e-11
-6.71463e-11
-7.97299e-12
4.49325e-11
-3.90749e-11
-5.87118e-11
5.28542e-11
-4.51659e-12
4.06365e-11
-3.29534e-11
-3.16648e-12
6.69e-10
-6.48994e-10
-8.04966e-11
1.18557e-09
-2.68531e-09
-6.97376e-10
2.19711e-09
7.27587e-12
-8.44823e-12
2.23811e-12
-1.06576e-12
7.03531e-12
2.40562e-13
6.95851e-10
2.62346e-11
-1.643e-11
-7.05655e-10
4.04071e-10
6.33055e-10
-1.15499e-09
1.17867e-10
2.15907e-09
-2.1246e-09
-6.01568e-10
5.67099e-10
1.39226e-10
-1.50312e-10
7.37798e-10
-7.26712e-10
-4.4144e-10
-2.18455e-10
3.88524e-10
2.71372e-10
-7.86243e-10
1.4345e-10
5.39607e-10
1.03186e-10
-1.45227e-12
1.85495e-11
2.41224e-12
-1.95095e-11
-4.2406e-11
7.16674e-11
-3.61047e-11
6.84335e-12
4.96744e-12
7.19201e-12
-1.93805e-11
7.22109e-12
4.2977e-12
-1.83182e-12
6.38965e-13
-3.10484e-12
-7.02835e-12
6.52774e-12
5.00606e-13
3.32261e-12
-3.07655e-12
-2.46058e-13
-1.46643e-13
4.00495e-12
-3.85831e-12
1.71611e-09
-2.04226e-09
-1.17561e-10
4.43713e-10
5.68257e-10
-2.4448e-10
-1.09057e-10
-2.14719e-10
-4.0608e-11
1.01467e-11
-5.74059e-12
3.62019e-11
1.08191e-09
1.38959e-09
-7.55392e-10
-6.03423e-12
-4.31657e-11
4.47319e-11
4.46808e-12
-6.92134e-10
-1.22044e-10
4.39883e-10
3.74295e-10
1.24639e-09
-2.8695e-10
1.29405e-10
-1.08885e-09
4.49862e-11
1.33003e-11
-7.06796e-11
1.23931e-11
9.10946e-12
3.88442e-11
-4.55671e-11
-2.38656e-12
-3.26007e-10
3.07195e-10
1.88117e-11
2.08815e-12
-4.72678e-11
5.42891e-11
-5.67414e-11
5.92745e-11
1.57469e-11
-1.828e-11
-1.31807e-10
1.35201e-10
-3.39357e-12
-1.3084e-09
-8.90347e-10
1.16692e-09
1.03182e-09
-6.74106e-10
7.07445e-10
-3.33398e-11
-6.7334e-12
-3.83842e-11
3.94009e-11
5.71668e-12
1.78184e-13
-3.1723e-13
1.90192e-13
-5.11454e-14
-2.5197e-10
1.11773e-10
1.61005e-11
1.24097e-10
3.65868e-14
-9.79362e-14
-2.51848e-13
3.13197e-13
4.0367e-11
-8.59547e-11
-3.19612e-11
7.75489e-11
1.29271e-10
-2.18223e-10
1.03968e-10
-1.50153e-11
7.94454e-10
-3.62078e-10
-3.62216e-10
-7.01603e-11
1.09361e-09
-1.81336e-09
8.28978e-11
6.3686e-10
1.24774e-10
-3.79338e-12
1.65496e-12
-1.22636e-10
4.16946e-11
-4.0612e-11
5.24736e-12
-6.32995e-12
-6.0362e-10
-3.62573e-10
9.66193e-10
-1.03799e-09
9.75984e-10
-1.28324e-11
-1.62522e-11
4.0173e-11
-1.10885e-11
-1.18461e-11
-6.18759e-11
7.58101e-11
-4.99286e-11
6.75317e-11
-1.3712e-11
-3.89117e-12
4.12277e-10
2.46053e-11
2.27948e-10
-6.6483e-10
-1.17577e-11
-7.80161e-11
4.2156e-11
4.76178e-11
-6.1203e-13
1.36409e-11
-1.30288e-11
5.00543e-12
-5.50849e-12
5.03062e-13
2.79365e-11
1.05263e-10
-1.36492e-10
3.29257e-12
-1.45134e-09
1.45186e-09
-5.19361e-13
-6.69453e-11
4.2157e-11
7.23318e-11
-4.75435e-11
-6.06103e-11
2.91193e-10
1.26324e-10
-3.56906e-10
9.10533e-12
-1.13689e-11
2.74203e-12
-4.78503e-13
-7.63241e-11
3.02269e-10
-4.29734e-10
2.03789e-10
5.27265e-12
1.37867e-11
8.1374e-10
-8.32799e-10
1.97378e-11
-4.14582e-11
-2.15524e-12
2.38756e-11
2.52494e-11
-1.52581e-11
3.24185e-11
-4.24099e-11
-8.82272e-12
9.97827e-12
-5.60344e-12
4.44789e-12
2.64683e-11
-3.30034e-11
1.17167e-11
-5.1816e-12
-1.8835e-10
-2.11262e-10
3.36737e-10
6.28746e-11
1.19193e-10
2.17204e-11
-9.56423e-11
-4.52715e-11
2.59168e-12
-1.71456e-11
-2.65737e-11
4.11275e-11
8.79191e-12
3.68855e-12
-1.24805e-11
2.22735e-10
-1.97149e-10
-2.64847e-10
2.3926e-10
-3.56807e-11
-1.4611e-11
3.10416e-11
1.92501e-11
-2.06245e-12
-2.70982e-12
3.90098e-12
8.71285e-13
-1.11476e-11
-1.10396e-10
-3.04864e-11
1.5203e-10
-3.8182e-10
1.3376e-10
-6.48169e-11
3.12877e-10
-1.0742e-10
8.99472e-11
-5.48583e-11
7.23309e-11
-2.04404e-11
-6.70044e-11
1.13837e-11
7.60611e-11
1.16092e-10
2.19657e-09
-2.11287e-09
-1.99792e-10
-9.51716e-10
7.09022e-11
8.80814e-10
-2.99383e-11
3.23563e-10
-2.93625e-10
1.51629e-10
-1.23357e-10
-1.04081e-09
1.01253e-09
6.14412e-13
5.40104e-12
-6.01545e-12
2.02541e-11
-8.55338e-12
-1.27833e-12
-1.04224e-11
1.14218e-11
-7.7005e-12
4.67701e-11
-5.04914e-11
2.99642e-10
2.0462e-11
6.30826e-10
-9.5093e-10
5.87263e-11
-5.64949e-11
4.73652e-12
-6.96793e-12
-1.40208e-10
8.35217e-11
-2.11599e-11
7.78466e-11
3.40229e-11
-1.01472e-11
-1.55689e-11
-1.50693e-10
4.82053e-10
-2.2397e-10
-1.07389e-10
-7.0675e-12
-7.27568e-11
5.09522e-12
7.4729e-11
-7.44056e-12
1.47034e-12
-8.42475e-11
9.02178e-11
-2.2363e-09
-9.06577e-10
3.03111e-09
1.11764e-10
1.66843e-11
-5.56649e-12
-6.02129e-12
-5.09652e-12
1.30301e-12
-1.42479e-10
-2.9544e-12
1.4413e-10
-1.93365e-13
3.73435e-11
-3.71501e-11
-4.63412e-11
-4.42983e-11
9.40865e-11
-3.44695e-12
4.73628e-12
-2.92348e-10
7.42335e-12
2.80189e-10
1.30947e-11
1.1991e-11
3.12444e-11
-5.63301e-11
-3.47118e-10
2.05451e-10
1.39043e-10
2.62444e-12
1.13464e-10
-4.2822e-11
-6.71572e-11
-3.48471e-12
3.49468e-11
6.6904e-11
3.59837e-11
-1.37835e-10
-1.42981e-11
2.44208e-11
-2.71183e-11
1.69957e-11
2.13037e-11
-2.12767e-11
1.97426e-13
-2.2443e-13
4.05089e-10
-5.32711e-11
-3.13731e-10
-3.80869e-11
4.9925e-12
-4.75605e-12
-2.36447e-13
-1.24544e-10
-9.4889e-11
1.30321e-10
8.91123e-11
-3.36506e-11
2.25109e-10
1.39443e-11
-2.05402e-10
4.15897e-12
4.99486e-12
-3.85035e-12
-5.30348e-12
-8.76218e-12
-1.78858e-10
1.93677e-10
-6.05737e-12
5.58564e-11
-4.8985e-11
-7.61017e-11
6.92303e-11
4.80489e-13
3.81721e-12
-7.56937e-11
1.36393e-10
1.24465e-10
-1.85164e-10
-5.87201e-12
9.99637e-12
2.59639e-10
-2.63764e-10
-1.45106e-10
1.52012e-11
-3.94262e-12
-7.99679e-14
-4.38528e-12
-9.1794e-12
1.36446e-11
3.42173e-11
4.53231e-11
-2.56776e-11
-5.38629e-11
-1.77066e-11
4.79355e-10
-4.37529e-10
-2.41201e-11
-1.73921e-11
1.85768e-10
-1.86083e-10
-8.48341e-11
-1.15794e-11
8.30552e-11
1.33583e-11
-5.904e-11
-3.21087e-11
2.9915e-11
6.12336e-11
2.69101e-10
6.82697e-11
-6.33088e-11
-2.74062e-10
1.97138e-11
2.80981e-11
-3.15087e-11
-1.63031e-11
2.53479e-10
4.21708e-10
-2.50552e-10
-4.24635e-10
1.53254e-11
3.15181e-11
-2.15941e-11
-1.30394e-11
-1.18121e-11
-4.86226e-11
7.34741e-11
-8.45611e-11
5.32012e-11
3.13599e-11
-3.46022e-10
2.61999e-10
-3.12364e-11
1.1526e-10
1.19566e-11
-8.63254e-11
1.53288e-11
7.3583e-12
-7.48335e-12
1.35401e-11
-1.34151e-11
-1.44829e-11
2.18464e-13
1.82315e-13
1.40822e-11
8.04787e-12
-6.89571e-13
5.10145e-13
-2.23831e-11
-5.30403e-13
2.24033e-11
-8.47393e-12
-7.56879e-12
1.08691e-11
5.17366e-12
2.59232e-11
-3.2751e-10
4.00357e-11
2.61551e-10
-4.98667e-12
-8.74691e-12
6.42176e-12
7.31181e-12
-4.28626e-10
-6.69575e-11
4.81885e-10
1.36981e-11
1.23367e-09
2.32304e-10
-7.86003e-10
-6.79968e-10
-1.09906e-09
1.42811e-10
2.27947e-10
7.28306e-10
-9.23429e-12
1.54411e-12
2.38432e-12
5.30586e-12
-3.39814e-11
1.56848e-10
-5.75826e-10
4.52959e-10
-1.00608e-10
-2.26631e-10
3.27238e-10
7.98832e-11
-4.87293e-12
-7.50102e-11
1.05684e-10
-2.38436e-10
1.32752e-10
4.33333e-12
-3.56879e-11
3.13545e-11
1.06967e-11
-2.98951e-12
4.65398e-11
-5.4247e-11
4.06727e-10
-3.93984e-10
-1.03243e-10
9.05008e-11
3.27672e-11
-1.14204e-11
-2.10325e-11
-3.14237e-13
2.10286e-11
2.43237e-10
-2.64265e-10
7.07242e-12
-7.19364e-11
-6.3516e-10
7.00024e-10
-8.60354e-13
-1.69879e-15
8.09041e-13
5.30117e-14
6.09582e-12
5.71717e-12
2.95205e-11
3.35092e-11
-1.17045e-11
-1.59974e-11
-5.8073e-12
-2.93324e-12
7.32438e-11
-6.06421e-11
-9.66847e-12
4.1208e-10
-3.05943e-10
1.3416e-09
-1.44774e-09
4.51261e-12
5.76618e-11
-5.7841e-11
-3.51521e-11
-5.35786e-13
-4.92403e-11
1.21423e-11
1.94595e-12
7.51582e-12
2.07989e-11
-2.22189e-11
-3.28747e-11
2.49493e-13
-2.89067e-11
6.1532e-11
-1.1123e-10
-5.76942e-11
6.34012e-11
1.05523e-10
2.39134e-11
8.37668e-14
-2.39972e-11
2.77145e-11
-5.57957e-11
2.28451e-11
5.23608e-12
2.00167e-10
-2.11118e-09
1.49473e-09
4.16289e-10
1.24517e-11
-4.31519e-11
6.20428e-11
-3.13426e-11
-2.10352e-13
7.17903e-14
-1.4694e-11
1.48326e-11
3.56826e-11
-8.51204e-11
3.41798e-11
-2.99431e-10
2.49846e-11
4.63225e-11
2.28124e-10
-1.51837e-11
4.81705e-11
-1.76613e-11
-2.05173e-11
-7.9235e-11
-1.06556e-10
2.06308e-10
-1.77914e-11
6.22704e-13
1.70858e-13
1.69978e-11
3.2213e-10
-1.4364e-10
1.24499e-10
-3.02989e-10
1.24298e-11
-1.56453e-11
3.56341e-11
-1.26493e-12
-2.30291e-11
1.01644e-10
-7.73495e-11
1.95896e-11
6.54185e-11
-1.17117e-10
1.29616e-10
-1.24284e-10
-2.46633e-11
1.9331e-11
1.69707e-11
3.73125e-11
-3.18568e-11
-2.24264e-11
-1.01602e-10
2.84715e-11
8.01614e-11
-7.03127e-12
-4.31496e-11
-2.43865e-11
3.18087e-11
3.57275e-11
5.58568e-12
-5.61011e-11
7.36583e-12
-5.95022e-11
5.82618e-11
-1.19035e-11
1.31439e-11
-1.02395e-10
2.8372e-10
1.728e-11
-1.98605e-10
-3.53699e-12
-2.11302e-13
3.74829e-12
-5.84095e-12
-8.92245e-13
2.99517e-11
-2.32185e-11
-3.7538e-11
-2.61806e-10
9.95684e-11
1.99775e-10
4.71021e-11
-8.33802e-11
-6.128e-12
4.63191e-11
-7.31172e-11
2.67981e-11
-8.05179e-12
1.91033e-13
7.86076e-12
-4.43562e-12
3.1522e-13
4.1204e-12
-1.62174e-14
5.41222e-12
-5.396e-12
1.26988e-11
-3.00019e-10
1.07143e-10
1.80177e-10
5.72492e-11
6.391e-11
-1.00437e-10
-2.07226e-11
-3.37116e-12
-3.08615e-13
3.67977e-12
7.16672e-13
-7.71725e-13
1.03283e-11
-1.02732e-11
-6.35564e-12
-1.6694e-13
6.52257e-12
1.08095e-11
-1.34708e-11
-2.55369e-12
5.21505e-12
-7.66254e-11
9.38049e-11
-1.46384e-12
-1.57156e-11
-6.25969e-12
4.36896e-12
1.89073e-12
5.27206e-12
-5.29934e-12
2.72757e-14
1.51542e-11
1.82674e-10
-1.21331e-10
-7.64973e-11
-8.02587e-15
6.59088e-12
-6.58285e-12
-5.31098e-12
-6.14196e-12
3.40115e-12
-5.29407e-11
2.55645e-11
1.29209e-10
-1.01832e-10
1.21306e-11
-1.02902e-11
7.58991e-11
-7.77395e-11
1.32982e-11
2.42896e-13
-1.44048e-11
8.6376e-13
9.05613e-13
5.41595e-12
-8.2947e-11
7.66254e-11
-1.81756e-10
3.32179e-12
-1.86318e-12
1.80297e-10
1.76608e-11
-1.89672e-11
-4.00459e-12
7.19893e-11
-8.16073e-11
-1.62347e-12
1.12415e-11
-5.67171e-12
1.26392e-11
3.87544e-12
-1.0843e-11
-2.79986e-13
2.73393e-13
1.33048e-11
-4.33156e-10
2.16734e-11
8.1375e-11
3.30107e-10
7.86419e-11
5.47334e-11
-2.19915e-10
8.65397e-11
-4.40178e-10
1.96498e-10
4.45535e-10
-2.01854e-10
-5.48266e-12
-6.59298e-13
-7.74845e-11
1.42733e-10
-5.72872e-11
-7.96125e-12
-4.9354e-11
-5.75439e-10
8.59794e-10
-2.35002e-10
5.80334e-11
-5.56499e-11
5.48658e-11
2.87264e-10
-1.45238e-10
1.35249e-10
-2.77275e-10
-2.06518e-10
2.18511e-10
-2.27678e-11
1.07751e-11
-2.04918e-10
1.63935e-13
3.01835e-10
-9.70812e-11
-2.43221e-10
3.48679e-10
-1.61554e-10
5.6096e-11
-4.48334e-10
4.38801e-10
-3.86141e-11
4.81471e-11
-8.73419e-11
7.27102e-10
-1.61288e-11
-6.23631e-10
8.36653e-11
2.53562e-10
1.1738e-11
-3.48966e-10
-3.60589e-10
6.2977e-10
-1.57023e-11
8.44092e-10
-1.02119e-09
2.35844e-10
-5.87413e-11
-4.58697e-11
3.83837e-10
1.62022e-10
-4.99989e-10
9.81524e-10
-9.18214e-10
-5.221e-11
-1.10994e-11
-6.94382e-11
-1.88315e-11
-4.52641e-11
1.33534e-10
2.55281e-10
7.45214e-10
-6.96253e-10
-3.04243e-10
7.9212e-13
5.9329e-12
4.5989e-12
-1.13239e-11
2.70342e-11
-1.0764e-11
-1.06518e-10
9.02477e-11
-3.24624e-12
6.63198e-11
-6.76391e-11
4.56563e-12
-6.80767e-10
1.28588e-09
3.76408e-10
-7.84543e-10
-1.09083e-10
2.43692e-10
6.49934e-10
-1.15511e-12
5.4682e-13
1.60124e-13
4.48167e-13
-5.64739e-11
4.89942e-10
-7.02985e-10
2.69517e-10
2.19396e-09
-3.16395e-10
1.34492e-09
-3.22249e-09
-1.79881e-11
3.02835e-11
-2.23878e-12
-2.0636e-13
4.00899e-12
-3.80263e-12
1.58347e-11
-6.17235e-11
-8.27093e-11
1.28598e-10
5.94935e-11
-6.67229e-11
2.63145e-11
-1.9085e-11
3.03329e-10
-5.54203e-10
6.06034e-10
-3.5516e-10
-8.95885e-11
7.9015e-11
1.6683e-11
-6.10942e-12
3.62529e-11
-3.55039e-11
1.51202e-11
-1.58691e-11
2.22274e-10
-3.40466e-10
-3.37994e-10
4.56187e-10
-1.87523e-11
8.00265e-14
6.84119e-13
5.17798e-11
1.37655e-13
-1.56646e-11
-5.12936e-12
4.79882e-11
-4.28589e-11
4.54912e-11
1.02654e-11
5.79102e-13
-5.63357e-11
-4.15936e-10
3.61488e-10
5.44472e-11
-6.10143e-10
-4.64594e-11
-1.34109e-10
7.90711e-10
1.11471e-11
-1.56256e-11
-7.81571e-12
1.22942e-11
5.72024e-12
-5.72024e-12
2.23459e-11
-1.3484e-11
3.66293e-11
-1.98011e-11
-2.43476e-10
-4.93829e-11
3.1266e-10
-1.23054e-10
4.95895e-10
6.23601e-11
-4.352e-10
-5.67748e-11
9.13146e-11
-3.45398e-11
-8.16929e-13
-1.41827e-11
4.92919e-13
1.45067e-11
1.07523e-12
2.18916e-13
-1.01892e-13
-1.19225e-12
1.09274e-09
2.76403e-10
-1.23429e-09
-1.34856e-10
4.60728e-11
-1.89261e-11
1.2359e-11
-3.95057e-11
-4.18296e-12
5.02558e-11
-5.69382e-11
5.64845e-11
-3.72933e-12
1.0358e-11
4.48979e-11
-4.49905e-11
1.60328e-11
3.69214e-11
-1.42665e-10
8.97108e-11
1.96324e-11
-7.09937e-12
-4.42536e-11
3.17206e-11
2.4713e-10
-1.09831e-10
-1.37299e-10
-3.24633e-10
-5.97649e-10
-3.1747e-10
1.23975e-09
1.7666e-10
-1.11992e-10
1.84565e-11
-8.31252e-11
5.25865e-12
3.22167e-13
-5.58081e-12
3.90646e-10
-3.53107e-10
-1.01251e-09
9.74966e-10
7.39853e-10
-3.24481e-10
-4.75218e-10
5.98454e-11
8.00088e-11
1.21321e-12
-2.06541e-11
-6.05679e-11
4.84833e-11
1.74373e-10
-9.2218e-11
-1.30638e-10
-3.1496e-11
-1.85086e-12
-7.09615e-12
4.0443e-11
-7.36485e-12
-8.04877e-11
6.74167e-11
2.04358e-11
-4.02539e-11
-1.01682e-11
5.124e-11
-3.16027e-11
5.13525e-11
-7.09899e-11
-5.54755e-11
1.70916e-11
-2.2479e-11
6.0863e-11
6.65137e-11
-1.46989e-10
2.01747e-11
6.03004e-11
7.89684e-10
7.14331e-10
-7.45648e-10
-7.58367e-10
7.71734e-12
-8.07714e-11
8.82302e-12
6.4231e-11
-6.65388e-12
6.65388e-12
1.26062e-10
-1.6519e-10
3.17637e-11
-9.03832e-11
8.0802e-11
1.72985e-11
-5.76883e-11
-1.11644e-12
5.82569e-11
5.47858e-13
3.03041e-11
6.59314e-11
-2.56247e-11
-7.06107e-11
3.36519e-10
3.8686e-11
-5.52242e-11
-3.1998e-10
-5.18151e-11
-7.41089e-11
3.55409e-11
1.19395e-10
-2.37889e-10
1.25763e-11
1.05917e-10
-2.31905e-09
9.46612e-10
3.81802e-09
-2.44558e-09
-7.25753e-11
4.02288e-10
-3.08602e-10
-2.11101e-11
-1.05366e-10
5.35263e-11
2.80107e-11
2.38286e-11
-5.76676e-12
4.97146e-11
-4.33792e-11
-6.43857e-11
-1.49091e-10
2.56856e-10
1.87587e-11
1.27628e-11
-1.59806e-11
-1.55409e-11
1.3382e-11
1.91557e-10
-2.31713e-10
2.6774e-11
-9.24675e-13
-7.4454e-12
2.71288e-11
8.46443e-12
-5.81274e-12
-3.57637e-12
-3.15589e-13
8.78002e-12
7.46034e-13
-2.54276e-11
5.30439e-12
1.93772e-11
-1.08942e-10
2.28858e-10
-2.33801e-10
1.13885e-10
-4.43058e-11
4.66194e-11
-9.52269e-12
7.2091e-12
-2.92993e-10
-3.29178e-10
7.96606e-10
-1.74435e-10
9.31239e-12
-6.24165e-12
1.44098e-10
-1.47168e-10
2.37508e-13
1.85404e-11
-1.94434e-11
6.65555e-13
-2.57517e-10
-1.84222e-13
2.57701e-10
-7.32634e-11
-1.07587e-10
1.76342e-10
4.50914e-12
-6.15043e-11
-4.90538e-11
-3.62159e-12
1.1418e-10
7.14419e-13
-3.82776e-14
-8.8658e-13
2.10438e-13
-2.76492e-09
-8.00302e-11
2.84495e-09
1.93034e-11
1.5428e-11
1.6667e-12
-3.63981e-11
-4.07446e-11
7.84985e-11
2.68777e-10
-3.0653e-10
1.7877e-12
-1.90026e-12
1.92525e-13
-7.99727e-14
3.47232e-12
1.67757e-13
-3.64008e-12
-3.16326e-12
-6.86168e-11
-1.31938e-11
8.49738e-11
-9.66824e-11
1.41371e-10
5.88273e-11
-1.03516e-10
2.4068e-10
-1.07829e-10
-7.80862e-11
-5.47649e-11
2.88386e-11
4.82911e-10
-2.21849e-10
-2.899e-10
-3.39883e-10
2.87659e-10
-2.73299e-10
3.25523e-10
-2.15682e-11
2.76433e-10
-1.38586e-10
-1.16279e-10
-1.7275e-09
-2.16331e-10
1.94383e-09
1.25288e-11
2.28717e-12
-1.4816e-11
-1.97165e-10
3.52989e-10
-1.26985e-10
9.69073e-11
-3.29104e-10
1.64918e-12
2.30548e-10
-3.45042e-11
2.89805e-12
-4.69466e-12
3.63008e-11
1.02188e-10
-2.49433e-11
-9.38798e-11
1.66354e-11
1.9244e-11
2.86968e-11
-2.73985e-11
-2.05422e-11
8.94705e-12
-8.89986e-12
-4.7197e-14
-2.54731e-11
3.50782e-11
1.91441e-11
-2.87491e-11
1.30474e-11
-1.06588e-13
-1.93597e-11
6.41889e-12
-9.91014e-12
8.86941e-12
1.52875e-12
-4.88024e-13
-7.58585e-12
3.99886e-12
3.58699e-12
-5.78242e-13
-5.46447e-12
8.15275e-12
-2.11003e-12
-1.23755e-11
1.02503e-10
2.99203e-10
-3.8933e-10
-1.64566e-12
-2.32438e-13
1.8781e-12
3.8391e-11
1.53408e-11
1.25066e-11
-6.62385e-11
3.28065e-11
-3.58011e-11
-4.45082e-12
-5.18886e-13
1.27092e-12
1.67336e-12
-2.4254e-12
-3.6139e-11
3.11283e-11
2.43142e-11
-9.9115e-10
1.31872e-10
8.59278e-10
-6.60576e-11
9.03826e-11
-2.4325e-11
2.62273e-10
4.1287e-12
-6.15517e-11
-2.0485e-10
8.11751e-11
-1.62892e-10
-8.42866e-11
1.66003e-10
-8.26531e-12
3.45806e-12
9.30077e-12
-4.49353e-12
-2.775e-11
-3.75385e-11
7.17524e-11
-6.46395e-12
8.6566e-11
-6.22273e-11
4.743e-11
-7.17688e-11
-2.92544e-11
-4.29053e-11
-7.47271e-11
1.46887e-10
-1.1732e-10
1.1176e-10
5.74183e-11
-5.18583e-11
7.25393e-12
-2.15227e-12
-5.10166e-12
-1.33644e-11
2.56768e-11
-1.65451e-11
4.23267e-12
1.51266e-11
-4.5074e-11
5.79877e-12
2.41487e-11
2.25294e-11
3.6815e-11
-1.22659e-10
6.33141e-11
2.88926e-11
-1.37291e-12
1.99731e-11
-4.74928e-11
-8.23129e-11
1.37212e-11
1.25924e-11
5.59992e-11
-2.2862e-11
-1.3631e-10
1.59172e-10
-4.19304e-13
-4.41381e-11
4.40142e-11
5.43219e-13
4.12239e-12
5.07866e-13