/*--------------------------------*- C++ -*----------------------------------*\
| =========                 |                                                 |
| \\      /  F ield         | OpenFOAM: The Open Source CFD Toolbox           |
|  \\    /   O peration     | Version:  2112                                  |
|   \\  /    A nd           | Website:  www.openfoam.com                      |
|    \\/     M anipulation  |                                                 |
\*---------------------------------------------------------------------------*/
FoamFile
{
    version     2.0;
    format      ascii;
    arch        "LSB;label=32;scalar=64";
    class       volScalarField;
    location    "870";
    object      T;
}
// * * * * * * * * * * * * * * * * * * * * * * * * * * * * * * * * * * * * * //

dimensions      [0 0 0 1 0 0 0];

internalField   nonuniform List<scalar> 
160405
(
901.692
908.578
997.676
976.793
982.884
957.233
1000.13
959.694
953.755
972.664
946.306
946.153
978.418
984.278
898.418
905.108
898.395
950.757
932.514
986.145
908.984
1019.47
979.533
1012.22
973.445
977.438
979.367
953.712
983.72
902.948
1015.83
968.292
908.906
988.505
1017.14
960.211
1015.99
981.222
961.458
987.054
926.5
969.467
965.438
952.219
937.592
959.947
997.606
898.481
936.429
977.562
954.201
976.445
953.256
950.69
915.968
952.403
1011.89
908.038
1011.84
932.98
930.987
1008.85
981.33
909.755
1011.91
981.352
898.427
937.683
1018.74
898.755
966.963
940.207
972.17
1003.8
965.824
966.989
919.671
1015.82
898.47
910.62
1010.86
974.175
1019.46
931.598
927.912
898.658
999.374
907.573
954.676
1013.91
919.234
1018.29
970.734
958.932
934.609
1010.6
1018.78
1006.74
910.92
992.681
931.816
1001.28
899.148
919.928
998.468
980.183
899.538
1013.63
955.902
988.828
1003.11
999.864
973.278
1009.52
1012.36
926.151
1013.65
972.297
966.562
1010.2
940.495
1001.12
899.051
997.483
998.441
985.117
903.746
1010.21
1018.03
898.486
932.152
939.757
902.246
948.54
899.332
1018.79
985.365
961.391
966.739
995.871
959.285
966.648
961.711
948.572
938.143
934.179
974.268
976.171
967.545
932.153
941.908
951.162
955.781
959.694
951.179
951.332
920.215
951.321
949.829
1005.87
963.773
953.755
956.183
972.444
1014.79
972.369
971.461
1009.89
998.239
983.628
942.369
950.935
1013.97
900.985
904.055
946.914
959.605
903.483
927.357
1005.71
949.852
1006.59
900.653
1002.45
974.847
1010.5
933.956
959.675
1013.11
1010.15
960.124
979.547
901.416
958.832
924.371
1010.28
1017.8
899.398
982.731
899.999
902.389
990.495
899.54
1003.01
978.13
973.946
1015.53
973.259
1011.21
957.038
973.624
900.328
993.867
1015.43
973.219
898.555
899.593
907.813
899.25
898.767
1018.57
981.617
904.854
994.781
984
956.568
984.852
938.67
1008.52
951.139
953.359
900.378
948.334
959.045
948.629
984.613
1010.5
952.916
931.697
945.726
947.453
991.086
900.497
995.704
899.476
925.168
1002.98
902.81
918.765
928.137
931.279
995.319
1005.49
1015.24
981.818
1017.17
905.027
978.926
982.205
970.621
933.511
975.464
984.329
993.119
898.204
970.131
981.788
963.451
996.576
1010
995.589
993.549
999.897
932.848
1005.73
980.165
986.582
994.353
989.858
937.209
933.452
1011.65
1016.53
946.745
924.422
933.648
915.42
946.031
941.312
934.94
977.251
1011.06
979.887
1013.95
1019.49
1018.85
917.348
941.661
993.733
917.589
996.561
898.694
919.996
987.253
997.251
914.92
996.042
987.63
901.754
921.232
927.606
1003.68
1012.1
974.605
1021.43
992.05
914.137
916.222
920.693
921.35
1003.49
919.518
920.386
926.671
988.677
990.557
943.037
994.228
1009.71
1013.19
971.005
931.196
963.706
956.142
952.069
943.554
900.51
987.018
955.715
1013.78
1003
967.063
981.019
974.953
928.143
956.648
1004.7
993.176
970.048
955.311
969.498
978.292
935.307
931.904
898.503
901.062
1016.28
1007.59
903.882
930.795
991.934
963.163
1005.64
923.204
975.082
980.782
941.903
1004.38
975.258
996.774
985.195
900.699
993.358
910.478
969.726
977.044
906.42
1012.56
950.081
1017.98
977.416
954.354
1015.17
986.61
906.43
983.568
965.296
933.226
973.63
1013.57
993.622
961.681
966.52
988.731
990.638
957.33
997.819
936.596
963.587
950.259
898.958
946.482
993.908
1013.13
1012.63
1017.3
1009.85
1015.15
898.796
1012.25
938.943
926.725
899.28
990.457
923.875
923.725
973.724
910.973
1000.88
993.64
944.929
1001.35
898.366
898.493
1014.25
998.354
1006.26
986.065
935.685
994.838
1002.87
1002.08
1003.07
985.326
976.118
1000.15
996.016
901.268
993.538
1006.36
948.279
961.386
962.349
941.689
1008.39
898.445
957.86
970.608
984.51
967.293
988.806
977.594
996.849
995.334
993.993
906.33
1019.46
1002.43
901.781
971.985
980.61
1016.95
1018.71
1018.31
898.885
984.177
1014.91
1013.06
1017.42
956.865
984.185
953.17
1017.3
971.333
1017.72
1013.23
971.099
945.126
1008
974.177
971.75
1009.03
984.43
1011.53
1007.47
916.709
956.48
938.704
1018.26
976.2
914.01
980.722
959.667
912.389
953.311
961.449
938.635
925.015
955.236
934.121
937.151
898.48
924.054
973.341
911.003
1014.85
978.892
987.738
923.143
899.977
1003.39
941.547
932.229
1004.2
1018.95
967.498
983.875
943.192
975.447
994.778
899.493
1007.5
997.673
992.744
1000.7
901.886
901.119
1008.37
1016.66
998.286
898.285
930.222
979.644
1010.71
1016.82
902.212
996.418
995.467
991.732
996.285
910.076
911.986
966.427
905.787
968.863
1017.43
899.057
898.359
977.585
963.027
1003.49
980.081
1000.21
996.669
990.292
970.578
900.186
987.701
1017.79
974.519
983.775
915.667
987.658
899.925
983.203
959.899
928.923
917.578
914.177
964.967
916.174
1007.07
904.035
1006.23
1012.87
1016.53
1002.79
933.658
909.18
924.725
962.829
1011.74
944.576
952.369
976.399
1016.27
951.259
954.437
899.584
1008.69
1015.43
982.758
911.543
918.815
953.15
951.499
901.872
962.827
938.548
955.143
961.214
999.725
898.871
1007.35
1015.46
902.921
1009.7
1002.92
907.162
1013.07
957.342
994.426
995.685
999.27
995.661
943.207
901.751
981.878
963.713
964.657
1011.17
992.306
898.658
976.578
967.816
940.42
941.076
1000.69
979.009
993.902
994.333
939.617
998.682
968.834
1014.46
944.742
999.197
969.229
1014.69
908.82
1011.9
984.773
1005.83
1019.66
1019.15
1014.03
918.848
967.771
1017.3
913.969
908.573
913.086
995.774
1012.71
930.864
1020.97
915.005
976.359
909.837
966.887
1000.67
919.253
917.088
966.84
902.821
1014.62
1016.88
973.377
951.687
1014.24
911.638
1019.5
985.478
979.142
995.177
945.479
975.069
1019.15
991.532
917.939
988.429
1010.38
987.226
966.929
986.955
927.408
1012.11
1018.4
1018.09
959.253
930.983
962.244
910.725
899.394
931.758
987.504
991.888
997.029
948.324
958.75
965.041
909.84
990.099
942.246
963.451
1011.83
931.693
933.655
969.904
934.245
971.833
969.258
966.311
995.135
993.549
913.142
974.528
980.994
971.288
900.298
977.441
907.081
921.412
966.071
978.447
982.898
956.578
965.011
978.132
979.143
910.798
910.614
963.652
977.342
898.546
982.424
1017.88
898.395
962.674
956.096
900.88
899.012
899.086
959.999
943.818
948.935
965.271
898.947
986.032
1012.05
900.513
1017.06
969.541
902.344
1012.46
980.403
900.57
908.827
988.552
986.747
948.416
952.528
950.861
988.071
991.308
952.154
992.477
944.677
901.956
945.676
938.768
979.541
988.709
1000.56
934.264
994.255
899.875
958.119
982.871
1007
970.624
988.134
935.619
1006.26
951.799
983.796
996.745
943.754
983.812
969.884
1006.8
992.557
924.46
982.894
999.613
958.307
948.678
956.8
953.732
899.729
971.839
900.024
914.217
1009.03
1017.49
933.95
1018.54
939.471
989.525
1014.66
916.403
1015.71
1010.57
963.581
953.085
933.915
1000.55
981.891
1015.43
1001.61
982.283
899.836
1013.76
939.019
1010.56
902.404
1011.26
913.482
1016.01
979.155
986.294
971.129
899.101
913.543
899.427
899.029
1008.16
914.406
1004.13
995.275
1003.1
1016.18
949.831
919.005
1010.12
995.199
1011.36
938.013
949.146
917.496
902.095
1018.95
970.691
1010.88
1015.9
1017.75
908.927
1016.65
993.676
898.809
960.136
995.981
930.242
981.138
1009.29
949.531
1018.4
919.584
908.763
999.179
1001.6
1013.71
965.84
956.711
999.955
1002.45
937.112
973.174
1018.12
947.928
903.124
978.126
967.356
945.069
1002.82
955.056
898.311
942.09
995.835
1003.97
943.997
992.37
1010.82
941.99
980.185
958.011
968.022
900.043
1004.41
949.417
967.831
955.643
952.908
976.551
1017.47
992.354
1013.33
979.198
1017.59
977.206
1011.86
905.595
971.406
1017.17
992.786
970.93
997.799
1017.63
969.631
990.289
989.344
966.476
993.393
1015.32
1004.99
972.419
953.494
904.864
976.535
952.662
960.313
965.143
1012.49
964.347
989.831
977.854
973.656
979.466
969.486
946.975
903.658
907.682
1018.44
964.978
963.293
995.195
975.37
907.683
963.604
975.68
904.359
970.004
973.674
1000.43
943.064
971.457
941.032
989.513
979.236
975.01
1008.39
983.838
989.474
991.282
903.058
907.011
1008.2
1018.45
1006.24
998.79
979.484
979.65
948.784
901.319
966.204
996.09
1010.61
978.414
1010.44
1019.19
1006.77
1014.8
976.855
940.775
1014.47
943.277
1013.74
1017.71
960.271
904.714
974.018
910.668
953.238
1010.84
981.883
989.605
959.461
942.478
972.844
898.766
953.289
1016.54
1012.34
969.159
940.049
969.176
1016.19
1005.87
1017.73
1005.87
903.386
1013.4
1016.82
979.633
995.553
983.449
1007.72
924.719
913.895
1009.19
936.675
985.129
975.919
909.287
898.537
1017.01
978.274
1009.29
954.395
900.389
962.551
941.136
936.602
915.118
947.667
976.773
1017.94
1017.57
1012.67
941.081
951.138
940.139
919.499
1011.16
949.424
1008.61
1012.96
906.669
962.891
915.127
1018.74
914.893
917.413
950.968
1016.12
901.435
1008
1006.96
926.306
929.452
936.336
1015.74
914.126
938.305
1017.78
1015.99
997.535
930.475
984.264
972.645
956.536
1006.98
1018.97
972.405
911.962
992.118
898.76
911.541
903.314
991.129
964.878
1017.02
992.601
995.978
991.429
974.056
903.486
994.681
983.761
900.137
901.331
1015.93
1016.54
970.651
957.18
898.181
900.365
940.196
1000.16
1021.03
984.675
1001.06
975.289
994.674
935.581
976.444
1012.68
982.149
986.979
997.241
938.12
900.851
989.495
981.965
976.298
1013.75
899.361
925.728
970.699
975.601
1010.9
980.191
1015.05
1017.17
1013.88
963.505
1018.44
997.733
990.041
985.228
968.719
1013.67
1011.05
974.355
1008.57
1012.61
980.21
975.1
1008.33
899.75
991.36
983.859
969.322
1013.63
951.504
979.24
970.653
964.632
982.31
959.92
964.075
987.085
974.842
982.252
1012
910.254
983.956
1013.24
910.613
1012.68
902.743
1018.85
1016.14
1017.38
1013.69
898.614
983.579
1014.86
928.193
909.989
1018.79
904.004
1017.57
1005.36
907.325
926.857
930.862
898.514
956.325
928.836
988.373
1007.52
986.415
1008.72
928.189
931.175
1001.49
930.086
1017.98
940.398
959.7
1016.47
1016.91
1016.72
1018.5
997.642
978.686
949.104
1016.04
1012.16
972.285
1017.41
942.98
1015.42
1016.35
1007.69
1013.95
1017.3
973.796
948.654
913.778
994.375
986.773
1011.2
1010.32
989.281
999.979
940.208
986.816
983.33
921.911
933.25
1004.12
933.645
904.664
912.362
987.733
898.501
957.363
1009.46
976.984
920.198
924.293
983.161
941.504
976.718
954.143
904.746
992.461
900.714
1012.66
969.256
995.916
943.132
964.299
964.167
980.2
914.137
917.172
1012.25
933.269
924.951
903.734
940.039
976.053
903.125
1018
1012.26
970.428
901.45
937.745
1011.33
951.906
1017.94
996.813
950.025
1002.32
984.86
903.831
987.908
959.733
955.192
904.436
944.378
956.233
990.585
942.635
990.038
938.525
1005.01
899.267
1007.05
1017.7
993.854
974.728
943.645
1006.49
965.138
994.149
962.655
923.9
966.471
916.843
932.639
945.983
1012.49
970.765
966.867
961.497
939.76
1015.36
965.586
948.732
1007.86
902.869
934.822
978.073
953.34
952.319
901.434
931.576
939.242
946.218
985.569
972.149
907.633
945.823
955.113
973.546
959.706
917.373
978.866
1016.62
902.334
901.019
939.2
942.722
903.399
971.398
951.131
901.346
923.839
1006.21
990.788
940.479
964.649
980.176
999.606
979.673
988.295
1008.43
996.472
902.518
997.103
937.993
994.331
1011.64
961.265
946.469
999.216
939.933
908.694
1000.33
960.58
931.326
964.501
991.481
966.538
1001.25
998.548
899.218
909.373
898.669
898.681
956.22
923.102
908.375
944.46
930.865
898.605
909.384
1006.25
902.963
909.358
931.111
1003.6
908.879
909.326
1014.84
965.706
1012.43
902.621
990.044
946.267
975.452
925.965
930.794
1017.4
947.849
978.013
1014.93
923.182
982.604
957.998
1019.36
984.787
927.869
936.813
930.432
914.185
903.001
909.129
977.314
1009.97
1018.52
990.472
952.831
1004.46
994.633
953.41
1016.74
1015.24
978.962
924.351
994.732
908.943
911.1
970.583
977.518
1007.41
954.982
970.301
965.643
906.541
1011.21
978.383
982.82
929.621
1012.33
957.193
1009.11
902.165
970.656
962.146
1001.85
999.501
956.928
995.068
990.803
982.297
1009.77
945.528
967.392
904.08
985.385
1000.67
976.59
907.036
941.386
1018.32
921.961
1013.23
1002.78
970.853
903.847
920.705
940.177
1008.84
1003.91
1010.62
1008.23
920.609
983.298
981.995
1017.57
1008.52
1008.52
996.01
968.108
1001.78
994.383
1018.44
898.489
1017.11
930.874
941.441
973.25
903.265
917.15
960.527
922.965
970.877
899.166
1016.25
898.492
941.933
943.032
1007.34
954.84
901.304
966.886
986.332
954.703
1016.81
902.846
1007.13
934.917
985.99
983.565
941.547
1017.53
899.909
926.733
905.976
1001.36
914.736
1000.41
986.037
958.966
899.135
989.472
953.162
991.294
1019.47
937.909
989.445
1014.94
906.302
910.214
990.41
998.459
940.579
1014.67
905.147
943.734
912.446
978.242
956.493
997.276
1005.21
954.391
966.539
988.806
898.536
956.406
983.764
977.818
979.294
955.067
922.81
1010.6
958.478
951.548
984.267
961.119
944.808
908.118
909.197
920.22
998.339
898.193
963.151
930.304
925.444
920.193
991.083
923.819
900.663
919.282
962.824
924.115
1012.12
995.016
976.83
963.432
1016.7
931.548
941.65
1016.95
1009.35
1010.09
1016.73
974.054
1017.04
983.198
932.05
929.318
910.752
934.808
931.778
906.387
939.153
966.633
911.846
928.082
979.529
961.101
954.685
939.345
941.593
953.194
1017.12
1010.26
996.292
910.16
962.047
986.339
898.642
976.222
998.548
1012.13
1009.93
904.321
901.794
962.8
911.482
909.494
971.563
1012.89
907.547
898.705
901.042
977.64
987.383
966.996
988.158
981.412
973.058
904.134
960.849
932.476
915.511
908.65
977.666
1019.09
1018.28
942.405
1021.54
936.277
990.958
951.801
898.668
1015.68
929.953
898.927
1006.53
980.012
1010.49
992.302
1018.81
909.88
905.737
931.318
953.708
918.668
910.083
968.549
910.072
1008.58
1009.76
1010.28
973.059
1016.68
911.458
917.004
934.358
979.763
898.766
900.8
947.431
968.689
902.809
902.193
965.615
899.191
1017.86
966.271
994.967
1018.48
977.396
1014.71
1009.18
999.838
924.198
975.737
967.664
911.25
959.567
1000.94
912.676
961.285
985.506
989.737
1017.77
990.87
996.879
928.579
917.208
922.258
986.835
921.307
898.462
986.987
979.861
979.084
973.813
974.553
933.373
984.494
961.296
943.631
1010.56
1017.42
933.527
948.209
1018.36
998.508
1004.72
902.38
985.646
900.067
1007.46
937.586
900.331
1017.17
945.639
1008.7
927.026
1007.67
915.396
994.482
921.982
1004.3
1017.71
907.835
956.888
947.949
920.757
1006.82
1011.53
922.375
973.883
1018.05
997.798
962.984
911.394
909.477
899.698
1018.09
985.064
898.801
900.856
912.56
967.856
898.635
898.118
912.904
1010.78
1011.98
911.962
969.821
898.709
939.002
944.279
898.787
900.344
1007.54
1017.51
898.584
989.453
996.602
974.257
899.037
935.911
975.128
984.108
992.441
957.767
953.881
1017.44
916.568
980.951
995.528
954.004
1011.04
900.053
1006.92
898.375
973.135
982.986
1009.02
974.757
976.165
941
1005.84
967.588
972.124
944.491
899.907
899.203
1004.75
981.808
1009.79
993.213
908.78
1008.07
933.841
910.504
990.36
1003.82
940.095
1000.71
1003.51
921.034
948.381
945.518
1011.89
1009.24
956.68
901.063
898.482
898.217
924.386
913.309
959.081
994.082
1010.02
926.109
902.139
992.076
946.571
989.789
1015.07
929.45
902.414
943.069
1018.76
1015.04
924.466
921.568
991.692
947.581
1005.99
971.481
948.649
956.694
940.593
969
952.325
934.412
942.109
917.694
949.24
1001.99
948.66
898.11
1016.07
925.541
988.746
1011.7
906.627
1019.41
989.982
971.381
1011.97
985.823
898.387
903.652
957.304
936.815
970.285
997.269
938.44
1017.64
898.834
969.875
996.278
998.819
899.932
1015.42
1015.66
953.185
1007.91
977.058
949.738
993.66
899.606
947.953
970.824
1001.55
1017.3
962.13
942.796
1013.78
968.742
1017.51
942.545
990.996
1020.56
1009.14
971.12
935.135
992.941
930.768
1014.6
976.915
981.59
960.549
954.006
899.273
937.411
968.12
972.657
1012.25
999.359
980.526
953.565
917.756
976.044
954.863
981.74
927.456
969.04
959.328
899.298
911.976
986.775
977.289
992.139
913.183
1019.7
999.387
914.701
982.584
929.162
969.35
983.737
911.59
899.887
1012.67
985.939
990.526
933.823
985.303
963.584
993.354
954.197
998.805
990.072
994.226
994.974
913.144
1004.52
941.325
987.61
996.475
970.318
983.613
1010.26
946.394
950.952
899.052
948.938
948.256
902.157
1004.53
990.155
977.518
946.535
974.853
1008.73
1008.51
940.685
999.024
996.018
981.632
949.909
979.62
966.931
898.733
1010.13
931.939
898.334
1000.99
938.754
901.048
956.753
1008.45
962.435
981.57
949.418
938.142
975.357
958.368
939.11
921.246
906.324
899.501
1008.38
961.14
929.306
904.772
954.122
898.733
919.767
902.79
944.856
971.723
951.526
925.117
907.886
945.602
944.154
926.522
942.53
940.214
1019.33
943.265
998.878
927.397
974.856
979.803
926.102
899.398
956.128
1014.97
977.489
997.362
959.45
1010.2
995.794
902.469
940.514
992.494
980.271
976.272
995.781
958.951
945.877
952.344
995.419
929.721
976.009
1008.6
912.628
937.515
1012.35
948.447
910.632
989.884
899.345
927.562
956.043
975.135
956.041
911.211
962.94
997.726
975.994
999.138
995.838
991.367
993.74
978.416
1008.73
1017.5
904.301
976.585
1003.81
900.39
1013.46
981.775
1017.6
994.307
964.191
948.603
1008.16
948.87
972.964
920.508
919.261
967.436
916.634
1006.48
1016.86
992.115
1014.08
1017.88
993.925
900.284
898.499
981.32
898.672
971.319
937.375
949.99
898.717
996.256
946.313
898.601
898.599
901.808
898.589
962.978
903.804
1018.44
985.085
898.606
919.651
937.811
898.68
999.42
991.642
933.349
977.276
950.163
947.009
935.302
1001.48
898.604
986.698
899.497
953.446
898.709
1008.56
982.485
1006.63
909.47
982.354
898.63
1016.38
1000.13
1008.71
915.645
943.044
910.295
964.121
1017.54
996.428
984.454
950.719
976.35
995.665
978.927
898.527
1000.02
940.718
899.709
993.466
1007.39
1015.32
966.641
975.87
1019.73
1013.2
1019.34
983.998
995.277
960.996
933.037
923.986
1018.52
1001.38
1011.14
938.114
1016.23
965.125
1019.24
931.992
990.506
910.812
975.045
1007.85
976.295
911.046
937.515
911.16
984.639
918.68
941.4
1016.97
949.536
915.348
898.341
928.328
905.734
968.408
905.503
1011.2
986.682
909.586
980.505
905.095
1018.31
1014.78
1021.09
921.469
911.325
1014.36
971.161
904.628
1003.46
911.189
902.758
995.336
1016.85
902.896
910.91
911.545
927.77
916.323
898.184
968.815
938.337
912.941
958.43
898.41
908.054
919.689
994.214
902.911
969.407
974.685
988.112
898.387
903.019
947.324
990.729
997.005
904.31
1017.24
915.71
898.321
1017.76
958.972
999.123
943.071
972.64
1014.07
902.389
1014.15
928.351
903.054
972.818
956.036
935.664
1010.18
901.741
898.147
898.111
898.377
898.322
916.482
1011.46
898.311
1006.13
991.573
904.265
904.243
905.409
994.739
1010.83
903.986
969.986
972.764
945.732
898.339
919.509
998.508
904.725
903.391
908.688
996.718
911.951
960.801
901.326
995.743
1013.9
898.324
957.519
945.724
904.533
964.564
1012.63
907.574
904.057
904.229
900.806
956.986
967.854
900.753
1011.76
962.872
900.782
993.713
960.507
901.001
972.195
900.721
900.775
901.524
987.216
900.351
1012.66
1018.22
927.752
901.008
1017.29
915.834
1019.4
953.653
1016.81
1006.55
998.303
1012.27
900.955
1012.69
995.017
901.232
900.612
989.606
947.423
916.229
990.821
1013.44
953.629
989.807
912.311
1016.07
1002.08
991.62
912.119
948.312
1007.52
970.209
980.752
901.035
977.089
910.469
898.796
912.672
898.865
972.677
990.404
998.442
1017.34
975.565
977.271
960.853
1009.08
912.37
979.72
1008.98
898.53
957.064
938.714
981.631
909.506
912.532
898.524
930.534
1012.27
898.371
1005.37
999.19
932.495
1009.6
1014.73
936.228
910.519
954.865
1013.66
973.717
1019.46
976.301
898.501
920.705
958.474
905.215
1003.35
908.832
904.972
1017.87
1009.8
920.046
898.442
942.023
987.326
1008.39
994.235
1017.02
971.397
924.546
911.844
1006.34
1009.37
905.555
990.554
990.253
1019
904.387
934.683
980.218
972.635
1016.76
1017.68
900.035
1007.66
981.257
1015.97
980.668
899.347
1011.06
917.128
1011.14
1001.13
997.561
999.42
899.181
1017.97
984.001
973.571
1017.7
918.804
938.073
1010.42
968.761
928.263
934.814
954.736
899.712
1018.09
922.136
937.035
922.445
932.473
923.928
982.732
973.224
926.668
1016.61
940.841
1013.05
898.938
932.06
1017.63
942.799
993.624
900.22
954.428
976.318
931.097
898.472
898.274
1006.34
949.4
901.935
898.241
916.15
953.359
1005.51
933.515
903.931
1011.39
934.59
936.08
934.542
901.476
1014.21
902.815
1002.45
921.162
932.507
936.841
1012.17
972.234
1010.38
968.875
1014.72
1015.75
1009.19
1013.63
917.613
902.9
978.267
1018.49
1012.26
955.486
928.582
970.279
902.586
975.232
968.129
902.833
921.729
988.716
902.21
926.873
928.303
898.61
1005.41
1010.21
919.141
926.628
964.1
1015.63
995.489
948.207
902.536
956.579
983.774
1021.2
900.492
973.024
1019.11
963.364
968.645
1010.57
1017.46
900.927
899.978
905.665
1006.14
967.926
902.938
900.143
934.013
918.271
946.597
1012.79
948.597
950.943
944.686
989.368
962.096
970.792
948.96
987.002
1009.54
1009
1007.94
922.413
917.065
916.874
1013.46
979.342
1022.35
931.623
914.327
933.84
927.947
1009.98
974.437
913.796
914.561
1013.86
946.578
958.248
992.516
921.102
993.178
922.153
925.483
990.581
993.567
941.522
1010.76
936.529
921.55
1010.98
929.565
928.765
998.142
1017.47
1017.39
933.706
979.479
900.191
976.483
929.02
1008.86
900.752
1008.07
1012.77
916.302
968.286
989.277
1001.78
916.672
1017.62
913.055
996.878
933.02
930.897
1016.09
1008.71
1005.31
913.605
1009.58
1016.95
964.56
969.727
918.481
939.518
909.337
1017.45
953.731
1016.46
1018.73
987.358
936.144
1019.41
910.86
1001.18
979.058
919.475
1007.79
919.773
1014.25
958.971
912.27
972.961
911.533
937.751
1014.59
906.17
926.746
915.695
907.503
929.721
934.314
907.625
973.441
991.797
905.276
1002.45
1008.8
983.168
943.868
967.593
985.999
905.519
1010.45
902.307
965.648
1018.06
955.216
952.087
954.107
924.066
906.605
1000.51
948.874
954.975
898.452
953.07
1015.97
965.863
907.531
972.722
959.828
972.518
986.24
1013.01
907.316
977.281
980.331
905.846
1003.49
906.678
971.997
1011.02
954.567
957.809
1006.66
995.656
979.93
902.738
914.608
1017.42
903.27
935.336
1017.91
1004
1009.27
957.014
902.139
914.588
1005.5
902.16
1011.29
900.949
988.28
990.757
987.175
978.293
934.414
902.278
1009.5
951.012
996.934
993.508
1015.09
1012.34
947.528
1013.26
1008.66
1018.41
937.596
960.169
902.87
1013.45
900.753
900.859
900.664
967.808
996.706
957.243
1004.39
941.27
935.98
966.48
975.134
1001.18
934.388
1016.59
959.439
979.187
993.384
986.789
898.144
922.843
898.258
991.193
1008.17
996.265
979.01
898.251
965.036
1004.55
898.215
1007.69
927.843
978.996
905.458
997.638
1013.39
950.555
991.921
984.695
899.102
1016.99
978.402
1019.44
1005.93
989.149
916.624
972.916
973.617
1016.51
900.074
900.763
1004.06
962.385
1006.84
924.388
1017.2
898.591
899.509
930.948
898.176
898.351
997.66
977.262
900.589
967.469
1011.95
1011.3
966.974
916.87
1017.4
919.156
926.825
1007.41
1018.01
917.538
962.957
958.611
997.463
918.544
906.885
901.605
1015.12
918.001
925.064
919.129
992.097
921.411
900.226
947.061
909.507
910.577
910.708
992.249
899.464
967.723
934.267
900.476
919.301
913.158
1016.71
1022.3
976.598
898.762
913.347
1016.84
940.336
920.293
909.914
946.088
948.073
1017.34
934.334
938.319
947.504
898.913
908.981
910.792
903.087
920.581
906.669
1016.4
935.604
957.871
934.094
937.006
943.545
986.319
948.906
900.82
914.129
1007.98
1000.49
970.105
920.041
1019.59
901.893
931.519
982.761
916.035
1014.31
902.819
995.92
940.764
996.966
1006.51
958.56
903.117
1009.61
944.077
944.515
898.483
988.021
899.922
1013.69
1015
969.058
963.326
991.084
959.046
967.131
995.667
1004.4
955.461
991.464
1004.79
900.108
900.366
986.73
967.993
942.219
919.092
899.371
898.651
1016.11
963.56
1015.17
957.049
938.908
1010.89
969.003
978.454
1018.79
901.423
959.204
1014.1
938.594
1005.41
964.761
898.161
901.033
964.184
1011.9
987.634
963.504
989.22
1018.18
964.035
970.883
919.343
907.7
898.617
900.934
990.109
900.608
983.952
962.983
900.779
993.856
900.488
901.76
984.678
956.572
974.354
1017.23
955.649
1016.91
941.423
1011.9
966.449
1011.29
973.839
1018.11
949.547
900.557
974.606
921.023
970.22
1017.8
973.572
915.745
926.468
1012.8
1017.45
901.092
898.857
1011.69
898.862
1018.69
995.894
1005.84
997.92
936.131
930.68
1016.78
902.212
1017.92
994.181
898.532
961.956
977.948
1008.4
942.9
898.631
898.571
969.079
903.695
975.976
945.259
984.284
1007.45
991.29
1012.46
1020.77
965.243
1016.73
1006.87
1002.51
964.6
980.127
966.801
1018.55
962.718
1014.91
988.346
902.692
995.334
902.361
906.11
1007.66
902.035
991.139
916.424
1013.42
963.34
922.692
929.661
935.321
948.653
903.086
983.379
985.8
988.375
1017.79
938.369
992.304
1000.57
973.149
992.841
1015.32
930.07
963.738
975.71
924.591
1007.5
938.206
996.225
988.231
997.196
1018.92
937.527
900.978
968.496
983.565
976.478
905.615
906.131
905.709
987.298
1017.47
937.899
905.773
905.682
930.969
976.271
938.167
928.857
901.899
909.786
902.236
962.892
1020.51
1005.03
1021.16
952.165
933.813
902.551
934.047
1014.64
990.241
940.2
898.118
899.368
900.896
901.926
1007.82
924.078
974.516
970.641
898.704
1018.33
960.144
999.111
961.16
912.765
898.309
956.19
954.553
902.346
950.261
949.338
1017.78
969.652
964.824
903.972
984.286
951.73
982.292
900.484
966.527
1000.56
1011.21
990.81
910.258
974.397
1008.99
899.724
933.045
936.716
987.723
948.325
987.268
1016.44
967.53
948.802
1013.32
978.984
903.52
941.714
981.534
974.208
970.001
915.934
909.441
977.864
969.314
970.354
963.821
1014.55
902.533
910.714
962.198
974.836
1003.71
949.745
911.081
997.048
948.818
898.487
935.028
908.491
1016.58
906.207
1015.24
983.736
978.34
995.852
916.52
957.811
926.783
905.056
905.325
952.431
950.575
898.627
898.696
936.272
1014.43
971.767
898.582
979.201
945.429
906.53
932.904
1017.35
976.946
1017.74
926.837
1012.3
958.258
929.053
1011.52
922.613
926.918
898.576
995.488
899.747
973.29
1018.11
989.076
955.268
970.537
1014.02
982.994
1016.36
1009.19
1009.28
951.469
993.584
979.245
948.91
907.997
934.995
975.655
965.941
900.122
1005.02
1009.26
899.834
961.139
1000.48
1015.47
974.41
949.309
1013.55
1008.19
934.401
975.444
898.467
932.426
899.99
1017.9
931.27
1012.99
934.836
1016.51
912.568
911.584
1011.63
1007.13
991.924
978.435
997.323
978.331
940.678
964.664
1003.32
980.136
1013.04
962.577
927.688
1012.74
914.696
916.721
927.645
928.948
988.843
1009.33
1004.99
978.935
977.017
1009.1
958.838
972.352
899.695
963.498
947.064
936.941
981.417
999.551
899.528
979.906
930.673
1008.27
962.182
1017.41
917.962
915.603
900.29
1017.97
917.625
906.993
917.787
918.158
914.453
916.437
980.317
1009.4
913.913
918.584
904.915
960.082
964.315
904.661
916.472
1017.93
1008.25
994.493
909.263
998.462
936.592
907.766
1013.73
905.633
934.898
929.473
928.387
936.376
906.226
973.682
934.78
1005.21
935.16
1002.06
906.53
953.603
905.391
962.1
1012.92
943.274
935.222
929.34
1011.01
902.231
984.295
907.577
976.317
997.34
900.347
902.072
1001.47
968.579
1008.03
898.112
1017.12
952.15
964.927
1004.95
977.843
951.381
982.33
903.022
1007.02
957.5
954.94
949.887
932.99
959.165
959.779
956.027
945.363
953.42
993.485
954.69
899.899
978.083
898.519
980.656
1016.88
1003.83
898.917
1009.39
993.581
988.325
920.092
997.72
975.555
899.693
986.962
900.854
901.426
973.704
988.225
972.574
982.789
997.117
1001.59
900.384
978.031
974.601
991.551
932.16
898.34
1014.85
971.959
943.483
967.213
898.678
988.615
996.466
997.987
971.963
898.356
898.502
921.246
1016.07
971.77
957.332
907.032
898.062
961.959
1006.96
942.55
978.712
991.647
1004.17
1007.83
949.082
910.574
967.652
992.612
966.317
973.629
1015.48
984.842
899.731
978.581
1000.58
939.39
1011.82
903.155
898.326
920.613
938.155
947.04
982.831
978.573
980.086
996.721
989.902
1011.23
921.211
980.87
925.062
976.436
935.561
965.812
920.265
922.046
924.058
906.794
898.448
906.784
906.617
913.741
1004.67
913.82
912.804
1017.44
911.798
917.334
1011.48
911.425
1007.44
955.671
916.382
1016.35
984.607
998.099
987.348
906.781
1015.47
910.888
936.35
975.158
974.364
983.369
906.953
921.695
978.201
905.936
929.007
919.768
907.038
947.406
1010.8
974.37
1016.36
970.807
936.751
928.98
926.431
948.942
906.275
1016.35
902.033
1010.88
1007.36
942.619
976.179
991.317
1007.41
1003.98
937.225
980.32
1017.21
898.248
946.942
902.692
944.586
951.119
904.847
908.258
907.26
906.944
908.06
971.844
997.054
1010.25
905.004
939.629
1009.22
1010.09
907.001
936.593
906.961
949.628
1009.23
955.097
946.355
908.441
927.877
935.44
970.554
995.294
951.591
1004.22
958.264
1003.92
1016.7
982.952
962.447
950.338
904.141
978.774
961.589
924.6
982.109
904.718
905.087
1005.59
901.147
1017.76
1009.03
903.857
908.407
903.875
1014.65
959.571
910.353
949.954
962.963
987.669
989.834
910.387
903.005
903.885
904.161
1010.79
974.641
904.424
1021.73
1012.18
982.433
900.421
980.464
1013.09
959.119
898.826
901.29
1006.03
947.26
1018.54
1016.36
1015.72
901.895
1016.14
941.443
900.397
927.613
901.758
947.182
950.91
972.033
966.892
1011.76
917.692
900.622
997.048
964.735
933.57
961.121
1010.21
943.186
944.725
1016.81
988.44
901.672
969.024
901.485
901.434
1009.27
901.629
980.737
989.461
939.668
912.277
936.629
903.772
989.478
996.705
1011.51
967.161
979.695
975.459
1016.19
902.807
1005.45
904.159
996.073
911.095
971.511
1011.26
902.803
1006.2
1007.14
898.581
1014.12
902.885
966.531
916.961
1017.94
972.297
902.486
925.436
1017.02
976.546
980.121
909.891
1006.97
1004.61
995.893
984.668
1012.11
996.912
980.898
985.334
998.688
903.43
900.694
1016.52
909.348
1012.47
900.615
908.086
900.535
900.334
1011.05
939.49
995.226
971.775
995.043
900.793
987.853
962.073
910.806
930.163
1002.84
1017.09
941.117
941.722
952.306
900.281
929.829
1004.92
900.936
903.627
938.098
918.126
915.509
942.419
936.423
910.979
1017.34
958.193
1008.41
902.456
939.793
983.803
971.138
952.563
1013.86
898.539
900.947
921.073
1014.46
1004.91
899.346
955.648
900.352
930.937
946.713
952.478
983.842
995.91
1018.9
928.762
946.396
983.094
916.098
940.477
920.645
944.521
941.645
979.355
977.026
898.059
898.73
989.747
899.357
943.677
954.959
909.697
973.258
911.855
902.019
981.489
900.934
900.794
900.591
898.464
912.659
962.325
938.707
906.595
898.834
961.389
968.353
900.236
961.097